REMARK  7 active torsions:
REMARK  status: ('A' for Active; 'I' for Inactive)
REMARK    1  A    between atoms: O_3  and  C_13 
REMARK    2  A    between atoms: O_3  and  C_19 
REMARK    3  A    between atoms: O_5  and  C_22 
REMARK    4  A    between atoms: N_6  and  C_18 
REMARK       I    between atoms: N_7  and  C_20 
REMARK    5  A    between atoms: N_10  and  C_26 
REMARK    6  A    between atoms: N_10  and  C_30 
REMARK    7  A    between atoms: C_18  and  C_20 
ROOT
HETATM    1  N   UNK N   1      -3.235   3.476   1.174  0.00  0.00    -0.351 N 
ATOM      2  HN  UNK N   1      -3.325   4.433   1.514  1.00  0.00     0.166 HD
HETATM    3  N   UNK N   1      -4.184   1.343   0.844  0.00  0.00    -0.338 N 
ATOM      4  HN  UNK N   1      -4.978   0.713   0.956  1.00  0.00     0.168 HD
HETATM    5  C   UNK N   1       0.353   2.238  -0.538  0.00  0.00     0.103 A 
HETATM    6  C   UNK N   1      -0.728   1.349  -0.459  0.00  0.00     0.057 A 
HETATM    7  C   UNK N   1       0.200   3.563  -0.108  0.00  0.00     0.103 A 
HETATM    8  C   UNK N   1      -1.954   1.764   0.094  0.00  0.00     0.038 A 
HETATM    9  C   UNK N   1      -1.012   3.980   0.459  0.00  0.00     0.070 A 
HETATM   10  C   UNK N   1      -2.079   3.081   0.580  0.00  0.00     0.050 A 
HETATM   11  C   UNK N   1      -3.058   0.894   0.221  0.00  0.00     0.119 A 
HETATM   12  C   UNK N   1      -4.273   2.613   1.321  0.00  0.00     0.182 A 
ENDROOT
BRANCH   5  13
HETATM   13  O   UNK N   1       1.557   1.814  -0.996  0.00  0.00    -0.343 OA
BRANCH  13  14
HETATM   14  C   UNK N   1       2.169   0.665  -0.513  0.00  0.00     0.132 C 
HETATM   15  C   UNK N   1       3.556   1.031   0.024  0.00  0.00     0.062 C 
HETATM   16  C   UNK N   1       4.269  -0.225   0.543  0.00  0.00     0.275 C 
HETATM   17  N   UNK N   1       4.396  -1.213  -0.551  0.00  0.00     0.097 N 
HETATM   18  C   UNK N   1       3.058  -1.615  -1.043  0.00  0.00     0.275 C 
HETATM   19  C   UNK N   1       2.307  -0.399  -1.607  0.00  0.00     0.062 C 
BRANCH  17  20
HETATM   20  C   UNK N   1       5.172  -2.411  -0.165  0.00  0.00     0.374 C 
BRANCH  20  21
HETATM   21  C   UNK N   1       6.586  -2.075   0.247  0.00  0.00     0.245 C 
HETATM   22  O   UNK N   1       7.271  -1.377  -0.487  0.00  0.00    -0.272 OA
HETATM   23  N   UNK N   1       7.101  -2.578   1.406  0.00  0.00    -0.364 N 
HETATM   24  C   UNK N   1       8.454  -2.306   1.852  0.00  0.00     0.149 C 
HETATM   25  H   UNK N   1       6.522  -3.205   1.985  0.00  0.00     0.161 HD
ENDBRANCH  20  21
ENDBRANCH  17  20
ENDBRANCH  13  14
ENDBRANCH   5  13
BRANCH   7  26
HETATM   26  O   UNK N   1       1.235   4.426  -0.194  0.00  0.00    -0.353 OA
HETATM   27  C   UNK N   1       1.441   5.188  -1.323  0.00  0.00     0.210 C 
ENDBRANCH   7  26
BRANCH  11  28
HETATM   28  N   UNK N   1      -3.039  -0.411  -0.363  0.00  0.00    -0.339 N 
HETATM   29  H   UNK N   1      -2.467  -0.552  -1.208  0.00  0.00     0.167 HD
BRANCH  28  30
HETATM   30  C   UNK N   1      -3.806  -1.522   0.097  0.00  0.00     0.074 A 
HETATM   31  C   UNK N   1      -4.034  -2.608  -0.771  0.00  0.00     0.164 A 
HETATM   32  F   UNK N   1      -3.579  -2.565  -2.050  0.00  0.00    -0.202 F 
HETATM   33  C   UNK N   1      -4.737  -3.734  -0.326  0.00  0.00     0.074 A 
HETATM   34 Cl   UNK N   1      -5.030  -5.079  -1.415  0.00  0.00    -0.081 Cl
HETATM   35  C   UNK N   1      -5.200  -3.793   0.990  0.00  0.00     0.027 A 
HETATM   36  C   UNK N   1      -4.971  -2.726   1.861  0.00  0.00     0.004 A 
HETATM   37  C   UNK N   1      -4.284  -1.592   1.421  0.00  0.00     0.033 A 
ENDBRANCH  28  30
ENDBRANCH  11  28
TORSDOF 7
