REMARK  6 active torsions:
REMARK  status: ('A' for Active; 'I' for Inactive)
REMARK    1  A    between atoms: O_2  and  C_31 
REMARK    2  A    between atoms: O_2  and  C_36 
REMARK    3  A    between atoms: N_5  and  C_20 
REMARK    4  A    between atoms: N_5  and  C_21 
REMARK    5  A    between atoms: N_6  and  C_26 
REMARK    6  A    between atoms: N_6  and  C_28 
ROOT
HETATM    1  N   UNK N   1      -4.512   3.601   0.579  0.00  0.00    -0.352 N 
ATOM      2  HN  UNK N   1      -5.293   4.174   0.898  1.00  0.00     0.166 HD
HETATM    3  N   UNK N   1      -2.251   3.430  -0.058  0.00  0.00    -0.338 N 
ATOM      4  HN  UNK N   1      -1.345   3.877  -0.196  1.00  0.00     0.168 HD
HETATM    5  C   UNK N   1      -5.097  -0.490  -0.046  0.00  0.00     0.036 A 
HETATM    6  C   UNK N   1      -3.637   1.479  -0.112  0.00  0.00     0.037 A 
HETATM    7  C   UNK N   1      -3.839   0.093  -0.301  0.00  0.00     0.047 A 
HETATM    8  C   UNK N   1      -6.157   0.341   0.357  0.00  0.00     0.032 A 
HETATM    9  C   UNK N   1      -4.705   2.277   0.345  0.00  0.00     0.047 A 
HETATM   10  C   UNK N   1      -2.388   2.103  -0.331  0.00  0.00     0.119 A 
HETATM   11  C   UNK N   1      -5.961   1.708   0.558  0.00  0.00     0.033 A 
HETATM   12  C   UNK N   1      -3.295   4.173   0.394  0.00  0.00     0.182 A 
ENDROOT
BRANCH  10  13
HETATM   13  N   UNK N   1      -1.302   1.384  -0.911  0.00  0.00    -0.342 N 
HETATM   14  H   UNK N   1      -1.521   0.624  -1.570  0.00  0.00     0.167 HD
BRANCH  13  15
HETATM   15  C   UNK N   1       0.076   1.668  -0.691  0.00  0.00     0.034 A 
HETATM   16  C   UNK N   1       0.526   2.369   0.447  0.00  0.00     0.039 A 
HETATM   17  C   UNK N   1       1.905   2.541   0.676  0.00  0.00    -0.026 A 
HETATM   18  C   UNK N   1       2.830   2.020  -0.248  0.00  0.00     0.082 A 
HETATM   19  C   UNK N   1       2.389   3.217   1.927  0.00  0.00     0.051 C 
HETATM   20  C   UNK N   1       2.373   1.338  -1.383  0.00  0.00     0.040 A 
HETATM   21  C   UNK N   1       1.013   1.156  -1.595  0.00  0.00     0.032 A 
BRANCH  18  22
HETATM   22  O   UNK N   1       4.163   2.153  -0.043  0.00  0.00    -0.310 OA
BRANCH  22  23
HETATM   23  C   UNK N   1       4.996   1.084  -0.084  0.00  0.00     0.081 A 
HETATM   24  C   UNK N   1       4.642  -0.120   0.570  0.00  0.00     0.087 A 
HETATM   25  C   UNK N   1       5.536  -1.179   0.499  0.00  0.00     0.130 A 
HETATM   26  N   UNK N   1       6.684  -1.074  -0.172  0.00  0.00    -0.250 N 
HETATM   27  N   UNK N   1       5.403  -2.394   1.056  0.00  0.00    -0.336 N 
HETATM   28  N   UNK N   1       7.332  -2.218  -0.076  0.00  0.00    -0.288 N 
HETATM   29  C   UNK N   1       7.073   0.050  -0.823  0.00  0.00     0.121 A 
HETATM   30  C   UNK N   1       6.546  -3.024   0.678  0.00  0.00     0.199 A 
ATOM     31  HN  UNK N   1       8.237  -2.449  -0.485  1.00  0.00     0.188 HD
HETATM   32  C   UNK N   1       6.223   1.169  -0.780  0.00  0.00     0.056 A 
ATOM     33  HN  UNK N   1       4.635  -2.755   1.622  1.00  0.00     0.168 HD
ENDBRANCH  22  23
ENDBRANCH  18  22
ENDBRANCH  13  15
ENDBRANCH  10  13
BRANCH   5  34
HETATM   34  N   UNK N   1      -5.345  -1.898  -0.172  0.00  0.00    -0.322 N 
HETATM   35  H   UNK N   1      -6.328  -2.208  -0.167  0.00  0.00     0.169 HD
BRANCH  34  36
HETATM   36  C   UNK N   1      -4.363  -2.940  -0.147  0.00  0.00     0.220 C 
HETATM   37  O   UNK N   1      -4.705  -4.231  -0.229  0.00  0.00    -0.320 OA
HETATM   38  C   UNK N   1      -3.602  -5.036  -0.032  0.00  0.00     0.209 C 
HETATM   39  C   UNK N   1      -2.422  -4.017   0.026  0.00  0.00     0.048 C 
HETATM   40  N   UNK N   1      -3.117  -2.754   0.024  0.00  0.00    -0.346 N 
HETATM   41  C   UNK N   1      -1.571  -4.197   1.293  0.00  0.00     0.040 C 
HETATM   42  C   UNK N   1      -1.543  -4.101  -1.230  0.00  0.00     0.040 C 
ATOM     43  HN  UNK N   1      -2.673  -1.843   0.142  1.00  0.00     0.164 HD
ENDBRANCH  34  36
ENDBRANCH   5  34
TORSDOF 6
