REMARK  11 active torsions:
REMARK  status: ('A' for Active; 'I' for Inactive)
REMARK    1  A    between atoms: O_2  and  C_18 
REMARK    2  A    between atoms: O_2  and  C_25 
REMARK    3  A    between atoms: O_3  and  C_27 
REMARK    4  A    between atoms: O_3  and  C_35 
REMARK    5  A    between atoms: N_5  and  C_14 
REMARK    6  A    between atoms: N_5  and  C_21 
REMARK    7  A    between atoms: N_8  and  C_17 
REMARK       I    between atoms: N_8  and  C_26 
REMARK    8  A    between atoms: N_9  and  C_31 
REMARK    9  A    between atoms: C_26  and  C_32 
REMARK   10  A    between atoms: C_31  and  C_33 
REMARK   11  A    between atoms: C_35  and  C_38 
ROOT
HETATM    1  N   UNK N   1      -4.251   3.373  -0.904  0.00  0.00    -0.364 N 
ATOM      2  HN  UNK N   1      -5.053   3.630  -1.480  1.00  0.00     0.165 HD
HETATM    3  N   UNK N   1      -1.002   6.002   1.466  0.00  0.00    -0.191 NA
HETATM    4  C   UNK N   1      -2.835   1.704   0.103  0.00  0.00     0.021 A 
HETATM    5  C   UNK N   1      -2.055   2.718   0.674  0.00  0.00     0.067 A 
HETATM    6  C   UNK N   1      -3.939   2.081  -0.690  0.00  0.00     0.047 A 
HETATM    7  C   UNK N   1      -2.538   0.345   0.306  0.00  0.00     0.048 A 
HETATM    8  C   UNK N   1      -3.329  -0.643  -0.274  0.00  0.00     0.069 A 
HETATM    9  C   UNK N   1      -4.418  -0.278  -1.056  0.00  0.00     0.097 A 
HETATM   10  C   UNK N   1      -4.713   1.073  -1.257  0.00  0.00     0.069 A 
HETATM   11  C   UNK N   1      -2.375   4.051   0.456  0.00  0.00     0.087 A 
HETATM   12  C   UNK N   1      -3.474   4.322  -0.334  0.00  0.00     0.113 A 
HETATM   13  C   UNK N   1      -1.617   5.127   1.013  0.00  0.00     0.103 C 
ENDROOT
BRANCH   5  14
HETATM   14  N   UNK N   1      -0.933   2.401   1.482  0.00  0.00    -0.354 N 
HETATM   15  H   UNK N   1      -1.171   2.300   2.464  0.00  0.00     0.166 HD
BRANCH  14  16
HETATM   16  C   UNK N   1       0.422   2.198   1.179  0.00  0.00     0.034 A 
HETATM   17  C   UNK N   1       0.873   2.300  -0.141  0.00  0.00     0.056 A 
HETATM   18  C   UNK N   1       2.220   2.098  -0.441  0.00  0.00     0.069 A 
HETATM   19 Cl   UNK N   1       2.742   2.233  -2.080  0.00  0.00    -0.081 Cl
HETATM   20  C   UNK N   1       3.124   1.792   0.577  0.00  0.00     0.091 A 
HETATM   21  C   UNK N   1       2.680   1.688   1.895  0.00  0.00     0.041 A 
HETATM   22  C   UNK N   1       1.333   1.890   2.195  0.00  0.00     0.032 A 
BRANCH  20  23
HETATM   23  O   UNK N   1       4.445   1.590   0.313  0.00  0.00    -0.344 OA
BRANCH  23  24
HETATM   24  C   UNK N   1       4.986   0.315   0.654  0.00  0.00     0.232 C 
BRANCH  24  25
HETATM   25  C   UNK N   1       6.125   0.003  -0.271  0.00  0.00     0.033 A 
HETATM   26  N   UNK N   1       7.348   0.409   0.127  0.00  0.00    -0.367 N 
HETATM   27  C   UNK N   1       8.370   0.125  -0.710  0.00  0.00     0.088 A 
ATOM     28  HN  UNK N   1       7.492   0.903   1.008  1.00  0.00     0.165 HD
HETATM   29  C   UNK N   1       8.223  -0.542  -1.915  0.00  0.00     0.017 A 
HETATM   30  C   UNK N   1       6.944  -0.943  -2.286  0.00  0.00     0.003 A 
HETATM   31  C   UNK N   1       5.867  -0.668  -1.451  0.00  0.00     0.027 A 
ENDBRANCH  24  25
ENDBRANCH  23  24
ENDBRANCH  20  23
ENDBRANCH  14  16
ENDBRANCH   5  14
BRANCH   8  32
HETATM   32  N   UNK N   1      -3.018  -1.988  -0.062  0.00  0.00    -0.321 N 
HETATM   33  C   UNK N   1      -1.965  -2.521   0.692  0.00  0.00     0.245 C 
HETATM   34  O   UNK N   1      -1.111  -1.898   1.313  0.00  0.00    -0.268 OA
HETATM   35  H   UNK N   1      -3.646  -2.645  -0.521  0.00  0.00     0.169 HD
BRANCH  33  36
HETATM   36  C   UNK N   1      -1.974  -4.014   0.672  0.00  0.00     0.072 C 
HETATM   37  C   UNK N   1      -1.041  -4.709   1.337  0.00  0.00     0.008 C 
BRANCH  37  38
HETATM   38  C   UNK N   1      -0.998  -6.208   1.365  0.00  0.00     0.299 C 
BRANCH  38  39
HETATM   39  N   UNK N   1       0.276  -6.717   0.869  0.00  0.00     0.083 N 
HETATM   40  C   UNK N   1       0.499  -6.288  -0.513  0.00  0.00     0.309 C 
HETATM   41  C   UNK N   1       0.318  -8.177   0.961  0.00  0.00     0.309 C 
ENDBRANCH  38  39
ENDBRANCH  37  38
ENDBRANCH  33  36
ENDBRANCH   8  32
BRANCH   9  42
HETATM   42  O   UNK N   1      -5.211  -1.222  -1.638  0.00  0.00    -0.349 OA
BRANCH  42  43
HETATM   43  C   UNK N   1      -6.580  -0.881  -1.841  0.00  0.00     0.171 C 
HETATM   44  C   UNK N   1      -7.416  -2.142  -1.784  0.00  0.00     0.034 C 
ENDBRANCH  42  43
ENDBRANCH   9  42
TORSDOF 11
