MODEL 1
REMARK VINA RESULT:      -6.1      0.000      0.000
REMARK  7 active torsions:
REMARK  status: ('A' for Active; 'I' for Inactive)
REMARK    1  A    between atoms: O_3  and  C_13 
REMARK    2  A    between atoms: O_3  and  C_19 
REMARK    3  A    between atoms: O_5  and  C_22 
REMARK    4  A    between atoms: N_6  and  C_18 
REMARK       I    between atoms: N_7  and  C_20 
REMARK    5  A    between atoms: N_10  and  C_26 
REMARK    6  A    between atoms: N_10  and  C_30 
REMARK    7  A    between atoms: C_18  and  C_20 
ROOT
HETATM    1  N   UNK N   1      -2.754  19.084  54.215  0.00  0.00    -0.351 N 
ATOM      2  HN  UNK N   1      -2.754  18.148  53.810  1.00  0.00     0.166 HD
HETATM    3  N   UNK N   1      -2.242  20.514  56.018  0.00  0.00    -0.338 N 
ATOM      4  HN  UNK N   1      -1.874  20.632  56.962  1.00  0.00     0.168 HD
HETATM    5  C   UNK N   1      -4.314  22.264  52.027  0.00  0.00     0.103 A 
HETATM    6  C   UNK N   1      -3.769  22.491  53.298  0.00  0.00     0.057 A 
HETATM    7  C   UNK N   1      -4.266  20.981  51.465  0.00  0.00     0.103 A 
HETATM    8  C   UNK N   1      -3.215  21.428  54.036  0.00  0.00     0.038 A 
HETATM    9  C   UNK N   1      -3.732  19.914  52.199  0.00  0.00     0.070 A 
HETATM   10  C   UNK N   1      -3.227  20.130  53.488  0.00  0.00     0.050 A 
HETATM   11  C   UNK N   1      -2.683  21.605  55.331  0.00  0.00     0.119 A 
HETATM   12  C   UNK N   1      -2.281  19.268  55.474  0.00  0.00     0.182 A 
ENDROOT
BRANCH   5  13
HETATM   13  O   UNK N   1      -4.920  23.273  51.351  0.00  0.00    -0.343 OA
BRANCH  13  14
HETATM   14  C   UNK N   1      -4.390  24.555  51.305  0.00  0.00     0.132 C 
HETATM   15  C   UNK N   1      -5.500  25.536  50.918  0.00  0.00     0.062 C 
HETATM   16  C   UNK N   1      -4.938  26.962  50.834  0.00  0.00     0.275 C 
HETATM   17  N   UNK N   1      -3.850  27.010  49.833  0.00  0.00     0.097 N 
HETATM   18  C   UNK N   1      -2.746  26.104  50.225  0.00  0.00     0.275 C 
HETATM   19  C   UNK N   1      -3.243  24.652  50.293  0.00  0.00     0.062 C 
BRANCH  17  20
HETATM   20  C   UNK N   1      -3.327  28.375  49.609  0.00  0.00     0.374 C 
BRANCH  20  21
HETATM   21  C   UNK N   1      -3.993  29.064  48.441  0.00  0.00     0.245 C 
HETATM   22  O   UNK N   1      -3.338  29.301  47.436  0.00  0.00    -0.272 OA
HETATM   23  N   UNK N   1      -5.299  29.450  48.526  0.00  0.00    -0.364 N 
HETATM   24  C   UNK N   1      -5.994  30.128  47.448  0.00  0.00     0.149 C 
HETATM   25  H   UNK N   1      -5.818  29.285  49.402  0.00  0.00     0.161 HD
ENDBRANCH  20  21
ENDBRANCH  17  20
ENDBRANCH  13  14
ENDBRANCH   5  13
BRANCH   7  26
HETATM   26  O   UNK N   1      -4.780  20.762  50.235  0.00  0.00    -0.353 OA
HETATM   27  C   UNK N   1      -5.991  20.129  50.067  0.00  0.00     0.210 C 
ENDBRANCH   7  26
BRANCH  11  28
HETATM   28  N   UNK N   1      -2.527  22.911  55.892  0.00  0.00    -0.339 N 
HETATM   29  H   UNK N   1      -3.249  23.242  56.548  0.00  0.00     0.167 HD
BRANCH  28  30
HETATM   30  C   UNK N   1      -1.481  23.821  55.561  0.00  0.00     0.074 A 
HETATM   31  C   UNK N   1      -1.788  24.989  54.835  0.00  0.00     0.164 A 
HETATM   32  F   UNK N   1      -3.057  25.210  54.405  0.00  0.00    -0.202 F 
HETATM   33  C   UNK N   1      -0.788  25.926  54.545  0.00  0.00     0.074 A 
HETATM   34 Cl   UNK N   1      -1.173  27.373  53.629  0.00  0.00    -0.081 Cl
HETATM   35  C   UNK N   1       0.518  25.714  54.992  0.00  0.00     0.027 A 
HETATM   36  C   UNK N   1       0.831  24.564  55.720  0.00  0.00     0.004 A 
HETATM   37  C   UNK N   1      -0.157  23.617  56.001  0.00  0.00     0.033 A 
ENDBRANCH  28  30
ENDBRANCH  11  28
TORSDOF 7
ENDMDL
MODEL 2
REMARK VINA RESULT:      -5.9      7.919     11.736
REMARK  7 active torsions:
REMARK  status: ('A' for Active; 'I' for Inactive)
REMARK    1  A    between atoms: O_3  and  C_13 
REMARK    2  A    between atoms: O_3  and  C_19 
REMARK    3  A    between atoms: O_5  and  C_22 
REMARK    4  A    between atoms: N_6  and  C_18 
REMARK       I    between atoms: N_7  and  C_20 
REMARK    5  A    between atoms: N_10  and  C_26 
REMARK    6  A    between atoms: N_10  and  C_30 
REMARK    7  A    between atoms: C_18  and  C_20 
ROOT
HETATM    1  N   UNK N   1      -4.421  17.130  44.371  0.00  0.00    -0.351 N 
ATOM      2  HN  UNK N   1      -3.881  17.184  43.508  1.00  0.00     0.166 HD
HETATM    3  N   UNK N   1      -5.732  18.198  46.014  0.00  0.00    -0.338 N 
ATOM      4  HN  UNK N   1      -6.151  19.054  46.377  1.00  0.00     0.168 HD
HETATM    5  C   UNK N   1      -4.780  13.478  46.337  0.00  0.00     0.103 A 
HETATM    6  C   UNK N   1      -5.423  14.613  46.848  0.00  0.00     0.057 A 
HETATM    7  C   UNK N   1      -4.079  13.558  45.127  0.00  0.00     0.103 A 
HETATM    8  C   UNK N   1      -5.331  15.848  46.178  0.00  0.00     0.038 A 
HETATM    9  C   UNK N   1      -3.968  14.786  44.461  0.00  0.00     0.070 A 
HETATM   10  C   UNK N   1      -4.572  15.932  44.993  0.00  0.00     0.050 A 
HETATM   11  C   UNK N   1      -5.937  17.023  46.673  0.00  0.00     0.119 A 
HETATM   12  C   UNK N   1      -4.981  18.257  44.883  0.00  0.00     0.182 A 
ENDROOT
BRANCH   5  13
HETATM   13  O   UNK N   1      -4.803  12.309  47.026  0.00  0.00    -0.343 OA
BRANCH  13  14
HETATM   14  C   UNK N   1      -4.145  12.153  48.239  0.00  0.00     0.132 C 
HETATM   15  C   UNK N   1      -5.077  12.601  49.369  0.00  0.00     0.062 C 
HETATM   16  C   UNK N   1      -4.367  12.463  50.723  0.00  0.00     0.275 C 
HETATM   17  N   UNK N   1      -3.138  13.286  50.726  0.00  0.00     0.097 N 
HETATM   18  C   UNK N   1      -2.205  12.827  49.671  0.00  0.00     0.275 C 
HETATM   19  C   UNK N   1      -2.851  12.973  48.285  0.00  0.00     0.062 C 
BRANCH  17  20
HETATM   20  C   UNK N   1      -2.450  13.298  52.036  0.00  0.00     0.374 C 
BRANCH  20  21
HETATM   21  C   UNK N   1      -2.841  14.487  52.882  0.00  0.00     0.245 C 
HETATM   22  O   UNK N   1      -3.875  14.441  53.533  0.00  0.00    -0.272 OA
HETATM   23  N   UNK N   1      -2.068  15.611  52.886  0.00  0.00    -0.364 N 
HETATM   24  C   UNK N   1      -2.393  16.790  53.664  0.00  0.00     0.149 C 
HETATM   25  H   UNK N   1      -1.227  15.646  52.290  0.00  0.00     0.161 HD
ENDBRANCH  20  21
ENDBRANCH  17  20
ENDBRANCH  13  14
ENDBRANCH   5  13
BRANCH   7  26
HETATM   26  O   UNK N   1      -3.469  12.463  44.625  0.00  0.00    -0.353 OA
HETATM   27  C   UNK N   1      -2.102  12.307  44.699  0.00  0.00     0.210 C 
ENDBRANCH   7  26
BRANCH  11  28
HETATM   28  N   UNK N   1      -6.820  16.980  47.796  0.00  0.00    -0.339 N 
HETATM   29  H   UNK N   1      -7.825  16.853  47.614  0.00  0.00     0.167 HD
BRANCH  28  30
HETATM   30  C   UNK N   1      -6.423  17.166  49.154  0.00  0.00     0.074 A 
HETATM   31  C   UNK N   1      -6.283  18.474  49.657  0.00  0.00     0.164 A 
HETATM   32  F   UNK N   1      -6.465  19.542  48.838  0.00  0.00    -0.202 F 
HETATM   33  C   UNK N   1      -5.947  18.683  51.000  0.00  0.00     0.074 A 
HETATM   34 Cl   UNK N   1      -5.761  20.315  51.620  0.00  0.00    -0.081 Cl
HETATM   35  C   UNK N   1      -5.768  17.592  51.853  0.00  0.00     0.027 A 
HETATM   36  C   UNK N   1      -5.914  16.292  51.366  0.00  0.00     0.004 A 
HETATM   37  C   UNK N   1      -6.233  16.074  50.024  0.00  0.00     0.033 A 
ENDBRANCH  28  30
ENDBRANCH  11  28
TORSDOF 7
ENDMDL
MODEL 3
REMARK VINA RESULT:      -5.9      3.494      6.223
REMARK  7 active torsions:
REMARK  status: ('A' for Active; 'I' for Inactive)
REMARK    1  A    between atoms: O_3  and  C_13 
REMARK    2  A    between atoms: O_3  and  C_19 
REMARK    3  A    between atoms: O_5  and  C_22 
REMARK    4  A    between atoms: N_6  and  C_18 
REMARK       I    between atoms: N_7  and  C_20 
REMARK    5  A    between atoms: N_10  and  C_26 
REMARK    6  A    between atoms: N_10  and  C_30 
REMARK    7  A    between atoms: C_18  and  C_20 
ROOT
HETATM    1  N   UNK N   1      -2.529  23.864  54.738  0.00  0.00    -0.351 N 
ATOM      2  HN  UNK N   1      -2.278  23.956  55.722  1.00  0.00     0.166 HD
HETATM    3  N   UNK N   1      -3.107  22.488  52.913  0.00  0.00    -0.338 N 
ATOM      4  HN  UNK N   1      -3.268  21.552  52.540  1.00  0.00     0.168 HD
HETATM    5  C   UNK N   1      -2.781  27.271  52.358  0.00  0.00     0.103 A 
HETATM    6  C   UNK N   1      -3.068  26.013  51.811  0.00  0.00     0.057 A 
HETATM    7  C   UNK N   1      -2.482  27.388  53.722  0.00  0.00     0.103 A 
HETATM    8  C   UNK N   1      -3.012  24.857  52.612  0.00  0.00     0.038 A 
HETATM    9  C   UNK N   1      -2.407  26.240  54.523  0.00  0.00     0.070 A 
HETATM   10  C   UNK N   1      -2.650  24.977  53.969  0.00  0.00     0.050 A 
HETATM   11  C   UNK N   1      -3.263  23.568  52.096  0.00  0.00     0.119 A 
HETATM   12  C   UNK N   1      -2.738  22.629  54.214  0.00  0.00     0.182 A 
ENDROOT
BRANCH   5  13
HETATM   13  O   UNK N   1      -2.757  28.373  51.567  0.00  0.00    -0.343 OA
BRANCH  13  14
HETATM   14  C   UNK N   1      -3.766  28.650  50.655  0.00  0.00     0.132 C 
HETATM   15  C   UNK N   1      -3.206  28.497  49.237  0.00  0.00     0.062 C 
HETATM   16  C   UNK N   1      -4.293  28.822  48.203  0.00  0.00     0.275 C 
HETATM   17  N   UNK N   1      -4.777  30.206  48.408  0.00  0.00     0.097 N 
HETATM   18  C   UNK N   1      -5.369  30.352  49.758  0.00  0.00     0.275 C 
HETATM   19  C   UNK N   1      -4.314  30.069  50.839  0.00  0.00     0.062 C 
BRANCH  17  20
HETATM   20  C   UNK N   1      -5.749  30.639  47.382  0.00  0.00     0.374 C 
BRANCH  20  21
HETATM   21  C   UNK N   1      -5.344  31.931  46.712  0.00  0.00     0.245 C 
HETATM   22  O   UNK N   1      -4.254  32.001  46.162  0.00  0.00    -0.272 OA
HETATM   23  N   UNK N   1      -6.170  33.016  46.757  0.00  0.00    -0.364 N 
HETATM   24  C   UNK N   1      -5.835  34.289  46.147  0.00  0.00     0.149 C 
HETATM   25  H   UNK N   1      -7.062  32.950  47.269  0.00  0.00     0.161 HD
ENDBRANCH  20  21
ENDBRANCH  17  20
ENDBRANCH  13  14
ENDBRANCH   5  13
BRANCH   7  26
HETATM   26  O   UNK N   1      -2.217  28.599  54.256  0.00  0.00    -0.353 OA
HETATM   27  C   UNK N   1      -3.179  29.306  54.942  0.00  0.00     0.210 C 
ENDBRANCH   7  26
BRANCH  11  28
HETATM   28  N   UNK N   1      -3.755  23.389  50.765  0.00  0.00    -0.339 N 
HETATM   29  H   UNK N   1      -3.110  23.575  49.985  0.00  0.00     0.167 HD
BRANCH  28  30
HETATM   30  C   UNK N   1      -5.096  23.036  50.432  0.00  0.00     0.074 A 
HETATM   31  C   UNK N   1      -5.417  21.683  50.208  0.00  0.00     0.164 A 
HETATM   32  F   UNK N   1      -4.443  20.737  50.250  0.00  0.00    -0.202 F 
HETATM   33  C   UNK N   1      -6.736  21.304  49.933  0.00  0.00     0.074 A 
HETATM   34 Cl   UNK N   1      -7.128  19.618  49.641  0.00  0.00    -0.081 Cl
HETATM   35  C   UNK N   1      -7.746  22.268  49.898  0.00  0.00     0.027 A 
HETATM   36  C   UNK N   1      -7.441  23.611  50.128  0.00  0.00     0.004 A 
HETATM   37  C   UNK N   1      -6.124  24.000  50.388  0.00  0.00     0.033 A 
ENDBRANCH  28  30
ENDBRANCH  11  28
TORSDOF 7
ENDMDL
MODEL 4
REMARK VINA RESULT:      -5.8      4.627      8.352
REMARK  7 active torsions:
REMARK  status: ('A' for Active; 'I' for Inactive)
REMARK    1  A    between atoms: O_3  and  C_13 
REMARK    2  A    between atoms: O_3  and  C_19 
REMARK    3  A    between atoms: O_5  and  C_22 
REMARK    4  A    between atoms: N_6  and  C_18 
REMARK       I    between atoms: N_7  and  C_20 
REMARK    5  A    between atoms: N_10  and  C_26 
REMARK    6  A    between atoms: N_10  and  C_30 
REMARK    7  A    between atoms: C_18  and  C_20 
ROOT
HETATM    1  N   UNK N   1      -3.660  19.344  53.320  0.00  0.00    -0.351 N 
ATOM      2  HN  UNK N   1      -3.492  18.665  54.062  1.00  0.00     0.166 HD
HETATM    3  N   UNK N   1      -3.126  21.398  52.293  0.00  0.00    -0.338 N 
ATOM      4  HN  UNK N   1      -2.569  22.252  52.285  1.00  0.00     0.168 HD
HETATM    5  C   UNK N   1      -6.622  18.601  50.490  0.00  0.00     0.103 A 
HETATM    6  C   UNK N   1      -5.845  19.765  50.401  0.00  0.00     0.057 A 
HETATM    7  C   UNK N   1      -6.350  17.655  51.488  0.00  0.00     0.103 A 
HETATM    8  C   UNK N   1      -4.824  20.014  51.337  0.00  0.00     0.038 A 
HETATM    9  C   UNK N   1      -5.346  17.903  52.434  0.00  0.00     0.070 A 
HETATM   10  C   UNK N   1      -4.599  19.086  52.374  0.00  0.00     0.050 A 
HETATM   11  C   UNK N   1      -4.039  21.187  51.303  0.00  0.00     0.119 A 
HETATM   12  C   UNK N   1      -2.940  20.496  53.293  0.00  0.00     0.182 A 
ENDROOT
BRANCH   5  13
HETATM   13  O   UNK N   1      -7.658  18.402  49.638  0.00  0.00    -0.343 OA
BRANCH  13  14
HETATM   14  C   UNK N   1      -7.469  17.955  48.337  0.00  0.00     0.132 C 
HETATM   15  C   UNK N   1      -7.979  16.514  48.229  0.00  0.00     0.062 C 
HETATM   16  C   UNK N   1      -7.761  15.982  46.807  0.00  0.00     0.275 C 
HETATM   17  N   UNK N   1      -6.320  16.034  46.472  0.00  0.00     0.097 N 
HETATM   18  C   UNK N   1      -5.828  17.430  46.520  0.00  0.00     0.275 C 
HETATM   19  C   UNK N   1      -5.991  18.007  47.935  0.00  0.00     0.062 C 
BRANCH  17  20
HETATM   20  C   UNK N   1      -6.008  15.434  45.156  0.00  0.00     0.374 C 
BRANCH  20  21
HETATM   21  C   UNK N   1      -4.578  14.955  45.066  0.00  0.00     0.245 C 
HETATM   22  O   UNK N   1      -3.933  15.190  44.053  0.00  0.00    -0.272 OA
HETATM   23  N   UNK N   1      -4.029  14.236  46.087  0.00  0.00    -0.364 N 
HETATM   24  C   UNK N   1      -2.668  13.735  46.057  0.00  0.00     0.149 C 
HETATM   25  H   UNK N   1      -4.607  14.007  46.910  0.00  0.00     0.161 HD
ENDBRANCH  20  21
ENDBRANCH  17  20
ENDBRANCH  13  14
ENDBRANCH   5  13
BRANCH   7  26
HETATM   26  O   UNK N   1      -7.088  16.527  51.569  0.00  0.00    -0.353 OA
HETATM   27  C   UNK N   1      -6.518  15.284  51.400  0.00  0.00     0.210 C 
ENDBRANCH   7  26
BRANCH  11  28
HETATM   28  N   UNK N   1      -4.131  22.104  50.211  0.00  0.00    -0.339 N 
HETATM   29  H   UNK N   1      -3.969  21.740  49.261  0.00  0.00     0.167 HD
BRANCH  28  30
HETATM   30  C   UNK N   1      -4.366  23.505  50.339  0.00  0.00     0.074 A 
HETATM   31  C   UNK N   1      -5.654  23.959  50.685  0.00  0.00     0.164 A 
HETATM   32  F   UNK N   1      -6.672  23.072  50.831  0.00  0.00    -0.202 F 
HETATM   33  C   UNK N   1      -5.897  25.325  50.870  0.00  0.00     0.074 A 
HETATM   34 Cl   UNK N   1      -7.507  25.886  51.287  0.00  0.00    -0.081 Cl
HETATM   35  C   UNK N   1      -4.855  26.244  50.732  0.00  0.00     0.027 A 
HETATM   36  C   UNK N   1      -3.572  25.804  50.400  0.00  0.00     0.004 A 
HETATM   37  C   UNK N   1      -3.324  24.444  50.197  0.00  0.00     0.033 A 
ENDBRANCH  28  30
ENDBRANCH  11  28
TORSDOF 7
ENDMDL
MODEL 5
REMARK VINA RESULT:      -5.6      5.547      8.871
REMARK  7 active torsions:
REMARK  status: ('A' for Active; 'I' for Inactive)
REMARK    1  A    between atoms: O_3  and  C_13 
REMARK    2  A    between atoms: O_3  and  C_19 
REMARK    3  A    between atoms: O_5  and  C_22 
REMARK    4  A    between atoms: N_6  and  C_18 
REMARK       I    between atoms: N_7  and  C_20 
REMARK    5  A    between atoms: N_10  and  C_26 
REMARK    6  A    between atoms: N_10  and  C_30 
REMARK    7  A    between atoms: C_18  and  C_20 
ROOT
HETATM    1  N   UNK N   1       2.062  16.838  58.383  0.00  0.00    -0.351 N 
ATOM      2  HN  UNK N   1       2.404  17.213  59.267  1.00  0.00     0.166 HD
HETATM    3  N   UNK N   1       2.375  15.422  56.524  0.00  0.00    -0.338 N 
ATOM      4  HN  UNK N   1       2.962  14.757  56.021  1.00  0.00     0.168 HD
HETATM    5  C   UNK N   1      -1.616  18.111  56.902  0.00  0.00     0.103 A 
HETATM    6  C   UNK N   1      -0.873  17.152  56.200  0.00  0.00     0.057 A 
HETATM    7  C   UNK N   1      -1.154  18.584  58.138  0.00  0.00     0.103 A 
HETATM    8  C   UNK N   1       0.360  16.695  56.704  0.00  0.00     0.038 A 
HETATM    9  C   UNK N   1       0.080  18.147  58.639  0.00  0.00     0.070 A 
HETATM   10  C   UNK N   1       0.845  17.222  57.917  0.00  0.00     0.050 A 
HETATM   11  C   UNK N   1       1.154  15.753  56.015  0.00  0.00     0.119 A 
HETATM   12  C   UNK N   1       2.829  15.960  57.687  0.00  0.00     0.182 A 
ENDROOT
BRANCH   5  13
HETATM   13  O   UNK N   1      -2.762  18.609  56.376  0.00  0.00    -0.343 OA
BRANCH  13  14
HETATM   14  C   UNK N   1      -2.918  18.823  55.013  0.00  0.00     0.132 C 
HETATM   15  C   UNK N   1      -2.488  20.256  54.684  0.00  0.00     0.062 C 
HETATM   16  C   UNK N   1      -2.674  20.532  53.186  0.00  0.00     0.275 C 
HETATM   17  N   UNK N   1      -4.093  20.333  52.815  0.00  0.00     0.097 N 
HETATM   18  C   UNK N   1      -4.505  18.935  53.079  0.00  0.00     0.275 C 
HETATM   19  C   UNK N   1      -4.371  18.611  54.575  0.00  0.00     0.062 C 
BRANCH  17  20
HETATM   20  C   UNK N   1      -4.381  20.686  51.409  0.00  0.00     0.374 C 
BRANCH  20  21
HETATM   21  C   UNK N   1      -4.619  22.166  51.222  0.00  0.00     0.245 C 
HETATM   22  O   UNK N   1      -5.560  22.695  51.796  0.00  0.00    -0.272 OA
HETATM   23  N   UNK N   1      -3.815  22.892  50.393  0.00  0.00    -0.364 N 
HETATM   24  C   UNK N   1      -3.998  24.312  50.159  0.00  0.00     0.149 C 
HETATM   25  H   UNK N   1      -3.058  22.415  49.881  0.00  0.00     0.161 HD
ENDBRANCH  20  21
ENDBRANCH  17  20
ENDBRANCH  13  14
ENDBRANCH   5  13
BRANCH   7  26
HETATM   26  O   UNK N   1      -1.873  19.499  58.823  0.00  0.00    -0.353 OA
HETATM   27  C   UNK N   1      -1.482  20.818  58.884  0.00  0.00     0.210 C 
ENDBRANCH   7  26
BRANCH  11  28
HETATM   28  N   UNK N   1       0.665  15.089  54.848  0.00  0.00    -0.339 N 
HETATM   29  H   UNK N   1       0.902  15.490  53.930  0.00  0.00     0.167 HD
BRANCH  28  30
HETATM   30  C   UNK N   1      -0.186  13.944  54.857  0.00  0.00     0.074 A 
HETATM   31  C   UNK N   1      -1.445  14.016  54.228  0.00  0.00     0.164 A 
HETATM   32  F   UNK N   1      -1.863  15.184  53.674  0.00  0.00    -0.202 F 
HETATM   33  C   UNK N   1      -2.276  12.891  54.176  0.00  0.00     0.074 A 
HETATM   34 Cl   UNK N   1      -3.848  12.990  53.402  0.00  0.00    -0.081 Cl
HETATM   35  C   UNK N   1      -1.851  11.683  54.733  0.00  0.00     0.027 A 
HETATM   36  C   UNK N   1      -0.601  11.598  55.350  0.00  0.00     0.004 A 
HETATM   37  C   UNK N   1       0.228  12.720  55.421  0.00  0.00     0.033 A 
ENDBRANCH  28  30
ENDBRANCH  11  28
TORSDOF 7
ENDMDL
MODEL 6
REMARK VINA RESULT:      -5.6      8.516     12.787
REMARK  7 active torsions:
REMARK  status: ('A' for Active; 'I' for Inactive)
REMARK    1  A    between atoms: O_3  and  C_13 
REMARK    2  A    between atoms: O_3  and  C_19 
REMARK    3  A    between atoms: O_5  and  C_22 
REMARK    4  A    between atoms: N_6  and  C_18 
REMARK       I    between atoms: N_7  and  C_20 
REMARK    5  A    between atoms: N_10  and  C_26 
REMARK    6  A    between atoms: N_10  and  C_30 
REMARK    7  A    between atoms: C_18  and  C_20 
ROOT
HETATM    1  N   UNK N   1      -5.454  18.449  45.936  0.00  0.00    -0.351 N 
ATOM      2  HN  UNK N   1      -5.478  19.465  46.018  1.00  0.00     0.166 HD
HETATM    3  N   UNK N   1      -4.927  16.527  44.676  0.00  0.00    -0.338 N 
ATOM      4  HN  UNK N   1      -4.572  16.119  43.812  1.00  0.00     0.168 HD
HETATM    5  C   UNK N   1      -6.871  16.107  49.074  0.00  0.00     0.103 A 
HETATM    6  C   UNK N   1      -6.341  15.496  47.929  0.00  0.00     0.057 A 
HETATM    7  C   UNK N   1      -6.856  17.503  49.191  0.00  0.00     0.103 A 
HETATM    8  C   UNK N   1      -5.835  16.277  46.873  0.00  0.00     0.038 A 
HETATM    9  C   UNK N   1      -6.369  18.289  48.137  0.00  0.00     0.070 A 
HETATM   10  C   UNK N   1      -5.880  17.682  46.974  0.00  0.00     0.050 A 
HETATM   11  C   UNK N   1      -5.320  15.705  45.690  0.00  0.00     0.119 A 
HETATM   12  C   UNK N   1      -4.997  17.880  44.791  0.00  0.00     0.182 A 
ENDROOT
BRANCH   5  13
HETATM   13  O   UNK N   1      -7.432  15.356  50.054  0.00  0.00    -0.343 OA
BRANCH  13  14
HETATM   14  C   UNK N   1      -6.683  14.494  50.844  0.00  0.00     0.132 C 
HETATM   15  C   UNK N   1      -5.396  15.206  51.272  0.00  0.00     0.062 C 
HETATM   16  C   UNK N   1      -4.534  14.268  52.128  0.00  0.00     0.275 C 
HETATM   17  N   UNK N   1      -4.204  13.051  51.354  0.00  0.00     0.097 N 
HETATM   18  C   UNK N   1      -5.439  12.325  50.980  0.00  0.00     0.275 C 
HETATM   19  C   UNK N   1      -6.331  13.206  50.092  0.00  0.00     0.062 C 
BRANCH  17  20
HETATM   20  C   UNK N   1      -3.281  12.142  52.066  0.00  0.00     0.374 C 
BRANCH  20  21
HETATM   21  C   UNK N   1      -1.998  12.826  52.477  0.00  0.00     0.245 C 
HETATM   22  O   UNK N   1      -1.266  13.288  51.613  0.00  0.00    -0.272 OA
HETATM   23  N   UNK N   1      -1.647  12.893  53.794  0.00  0.00    -0.364 N 
HETATM   24  C   UNK N   1      -0.424  13.523  54.253  0.00  0.00     0.149 C 
HETATM   25  H   UNK N   1      -2.255  12.453  54.501  0.00  0.00     0.161 HD
ENDBRANCH  20  21
ENDBRANCH  17  20
ENDBRANCH  13  14
ENDBRANCH   5  13
BRANCH   7  26
HETATM   26  O   UNK N   1      -7.354  18.095  50.297  0.00  0.00    -0.353 OA
HETATM   27  C   UNK N   1      -6.682  19.119  50.927  0.00  0.00     0.210 C 
ENDBRANCH   7  26
BRANCH  11  28
HETATM   28  N   UNK N   1      -5.131  14.292  45.576  0.00  0.00    -0.339 N 
HETATM   29  H   UNK N   1      -5.970  13.695  45.555  0.00  0.00     0.167 HD
BRANCH  28  30
HETATM   30  C   UNK N   1      -3.864  13.638  45.555  0.00  0.00     0.074 A 
HETATM   31  C   UNK N   1      -3.245  13.298  46.774  0.00  0.00     0.164 A 
HETATM   32  F   UNK N   1      -3.822  13.647  47.952  0.00  0.00    -0.202 F 
HETATM   33  C   UNK N   1      -2.027  12.606  46.780  0.00  0.00     0.074 A 
HETATM   34 Cl   UNK N   1      -1.253  12.196  48.301  0.00  0.00    -0.081 Cl
HETATM   35  C   UNK N   1      -1.430  12.233  45.574  0.00  0.00     0.027 A 
HETATM   36  C   UNK N   1      -2.041  12.557  44.361  0.00  0.00     0.004 A 
HETATM   37  C   UNK N   1      -3.248  13.260  44.345  0.00  0.00     0.033 A 
ENDBRANCH  28  30
ENDBRANCH  11  28
TORSDOF 7
ENDMDL
MODEL 7
REMARK VINA RESULT:      -5.6     11.918     13.550
REMARK  7 active torsions:
REMARK  status: ('A' for Active; 'I' for Inactive)
REMARK    1  A    between atoms: O_3  and  C_13 
REMARK    2  A    between atoms: O_3  and  C_19 
REMARK    3  A    between atoms: O_5  and  C_22 
REMARK    4  A    between atoms: N_6  and  C_18 
REMARK       I    between atoms: N_7  and  C_20 
REMARK    5  A    between atoms: N_10  and  C_26 
REMARK    6  A    between atoms: N_10  and  C_30 
REMARK    7  A    between atoms: C_18  and  C_20 
ROOT
HETATM    1  N   UNK N   1       9.580  28.068  57.118  0.00  0.00    -0.351 N 
ATOM      2  HN  UNK N   1       9.918  27.551  57.930  1.00  0.00     0.166 HD
HETATM    3  N   UNK N   1       9.749  28.571  54.821  0.00  0.00    -0.338 N 
ATOM      4  HN  UNK N   1      10.226  28.438  53.929  1.00  0.00     0.168 HD
HETATM    5  C   UNK N   1       6.380  30.697  57.546  0.00  0.00     0.103 A 
HETATM    6  C   UNK N   1       6.966  30.507  56.287  0.00  0.00     0.057 A 
HETATM    7  C   UNK N   1       6.825  29.947  58.643  0.00  0.00     0.103 A 
HETATM    8  C   UNK N   1       8.031  29.601  56.125  0.00  0.00     0.038 A 
HETATM    9  C   UNK N   1       7.896  29.056  58.494  0.00  0.00     0.070 A 
HETATM   10  C   UNK N   1       8.512  28.897  57.247  0.00  0.00     0.050 A 
HETATM   11  C   UNK N   1       8.669  29.401  54.882  0.00  0.00     0.119 A 
HETATM   12  C   UNK N   1      10.205  27.917  55.922  0.00  0.00     0.182 A 
ENDROOT
BRANCH   5  13
HETATM   13  O   UNK N   1       5.409  31.629  57.717  0.00  0.00    -0.343 OA
BRANCH  13  14
HETATM   14  C   UNK N   1       4.944  32.412  56.669  0.00  0.00     0.132 C 
HETATM   15  C   UNK N   1       5.039  33.886  57.073  0.00  0.00     0.062 C 
HETATM   16  C   UNK N   1       4.507  34.778  55.943  0.00  0.00     0.275 C 
HETATM   17  N   UNK N   1       3.100  34.425  55.651  0.00  0.00     0.097 N 
HETATM   18  C   UNK N   1       3.002  33.015  55.208  0.00  0.00     0.275 C 
HETATM   19  C   UNK N   1       3.492  32.070  56.316  0.00  0.00     0.062 C 
BRANCH  17  20
HETATM   20  C   UNK N   1       2.474  35.313  54.648  0.00  0.00     0.374 C 
BRANCH  20  21
HETATM   21  C   UNK N   1       2.808  34.910  53.231  0.00  0.00     0.245 C 
HETATM   22  O   UNK N   1       3.915  35.172  52.782  0.00  0.00    -0.272 OA
HETATM   23  N   UNK N   1       1.870  34.295  52.453  0.00  0.00    -0.364 N 
HETATM   24  C   UNK N   1       2.122  33.896  51.082  0.00  0.00     0.149 C 
HETATM   25  H   UNK N   1       0.927  34.129  52.836  0.00  0.00     0.161 HD
ENDBRANCH  20  21
ENDBRANCH  17  20
ENDBRANCH  13  14
ENDBRANCH   5  13
BRANCH   7  26
HETATM   26  O   UNK N   1       6.256  30.119  59.856  0.00  0.00    -0.353 OA
HETATM   27  C   UNK N   1       5.635  29.077  60.510  0.00  0.00     0.210 C 
ENDBRANCH   7  26
BRANCH  11  28
HETATM   28  N   UNK N   1       8.152  29.987  53.685  0.00  0.00    -0.339 N 
HETATM   29  H   UNK N   1       7.206  29.713  53.384  0.00  0.00     0.167 HD
BRANCH  28  30
HETATM   30  C   UNK N   1       8.873  30.878  52.835  0.00  0.00     0.074 A 
HETATM   31  C   UNK N   1       9.281  32.129  53.336  0.00  0.00     0.164 A 
HETATM   32  F   UNK N   1       8.936  32.504  54.596  0.00  0.00    -0.202 F 
HETATM   33  C   UNK N   1      10.037  32.998  52.540  0.00  0.00     0.074 A 
HETATM   34 Cl   UNK N   1      10.532  34.562  53.165  0.00  0.00    -0.081 Cl
HETATM   35  C   UNK N   1      10.406  32.618  51.248  0.00  0.00     0.027 A 
HETATM   36  C   UNK N   1      10.015  31.376  50.745  0.00  0.00     0.004 A 
HETATM   37  C   UNK N   1       9.247  30.509  51.527  0.00  0.00     0.033 A 
ENDBRANCH  28  30
ENDBRANCH  11  28
TORSDOF 7
ENDMDL
MODEL 8
REMARK VINA RESULT:      -5.5      3.098      8.190
REMARK  7 active torsions:
REMARK  status: ('A' for Active; 'I' for Inactive)
REMARK    1  A    between atoms: O_3  and  C_13 
REMARK    2  A    between atoms: O_3  and  C_19 
REMARK    3  A    between atoms: O_5  and  C_22 
REMARK    4  A    between atoms: N_6  and  C_18 
REMARK       I    between atoms: N_7  and  C_20 
REMARK    5  A    between atoms: N_10  and  C_26 
REMARK    6  A    between atoms: N_10  and  C_30 
REMARK    7  A    between atoms: C_18  and  C_20 
ROOT
HETATM    1  N   UNK N   1      -4.209  24.159  49.874  0.00  0.00    -0.351 N 
ATOM      2  HN  UNK N   1      -4.465  24.046  48.894  1.00  0.00     0.166 HD
HETATM    3  N   UNK N   1      -3.406  25.529  51.617  0.00  0.00    -0.338 N 
ATOM      4  HN  UNK N   1      -3.049  26.434  51.923  1.00  0.00     0.168 HD
HETATM    5  C   UNK N   1      -4.568  20.923  52.470  0.00  0.00     0.103 A 
HETATM    6  C   UNK N   1      -4.126  22.162  52.954  0.00  0.00     0.057 A 
HETATM    7  C   UNK N   1      -4.959  20.795  51.130  0.00  0.00     0.103 A 
HETATM    8  C   UNK N   1      -4.025  23.270  52.091  0.00  0.00     0.038 A 
HETATM    9  C   UNK N   1      -4.846  21.889  50.261  0.00  0.00     0.070 A 
HETATM   10  C   UNK N   1      -4.362  23.116  50.731  0.00  0.00     0.050 A 
HETATM   11  C   UNK N   1      -3.556  24.527  52.528  0.00  0.00     0.119 A 
HETATM   12  C   UNK N   1      -3.720  25.349  50.306  0.00  0.00     0.182 A 
ENDROOT
BRANCH   5  13
HETATM   13  O   UNK N   1      -4.588  19.837  53.283  0.00  0.00    -0.343 OA
BRANCH  13  14
HETATM   14  C   UNK N   1      -3.423  19.233  53.737  0.00  0.00     0.132 C 
HETATM   15  C   UNK N   1      -3.489  17.734  53.427  0.00  0.00     0.062 C 
HETATM   16  C   UNK N   1      -2.225  17.033  53.942  0.00  0.00     0.275 C 
HETATM   17  N   UNK N   1      -2.099  17.242  55.401  0.00  0.00     0.097 N 
HETATM   18  C   UNK N   1      -1.981  18.686  55.709  0.00  0.00     0.275 C 
HETATM   19  C   UNK N   1      -3.237  19.437  55.245  0.00  0.00     0.062 C 
BRANCH  17  20
HETATM   20  C   UNK N   1      -0.964  16.505  55.998  0.00  0.00     0.374 C 
BRANCH  20  21
HETATM   21  C   UNK N   1      -1.035  15.020  55.728  0.00  0.00     0.245 C 
HETATM   22  O   UNK N   1      -1.819  14.334  56.367  0.00  0.00    -0.272 OA
HETATM   23  N   UNK N   1      -0.204  14.450  54.808  0.00  0.00    -0.364 N 
HETATM   24  C   UNK N   1      -0.210  13.030  54.512  0.00  0.00     0.149 C 
HETATM   25  H   UNK N   1       0.485  15.039  54.316  0.00  0.00     0.161 HD
ENDBRANCH  20  21
ENDBRANCH  17  20
ENDBRANCH  13  14
ENDBRANCH   5  13
BRANCH   7  26
HETATM   26  O   UNK N   1      -5.398  19.607  50.663  0.00  0.00    -0.353 OA
HETATM   27  C   UNK N   1      -6.336  19.534  49.657  0.00  0.00     0.210 C 
ENDBRANCH   7  26
BRANCH  11  28
HETATM   28  N   UNK N   1      -3.318  24.783  53.915  0.00  0.00    -0.339 N 
HETATM   29  H   UNK N   1      -4.131  24.991  54.512  0.00  0.00     0.167 HD
BRANCH  28  30
HETATM   30  C   UNK N   1      -2.030  24.839  54.525  0.00  0.00     0.074 A 
HETATM   31  C   UNK N   1      -1.743  23.984  55.607  0.00  0.00     0.164 A 
HETATM   32  F   UNK N   1      -2.706  23.162  56.100  0.00  0.00    -0.202 F 
HETATM   33  C   UNK N   1      -0.469  23.981  56.188  0.00  0.00     0.074 A 
HETATM   34 Cl   UNK N   1      -0.121  22.923  57.545  0.00  0.00    -0.081 Cl
HETATM   35  C   UNK N   1       0.530  24.814  55.683  0.00  0.00     0.027 A 
HETATM   36  C   UNK N   1       0.259  25.658  54.604  0.00  0.00     0.004 A 
HETATM   37  C   UNK N   1      -1.014  25.679  54.028  0.00  0.00     0.033 A 
ENDBRANCH  28  30
ENDBRANCH  11  28
TORSDOF 7
ENDMDL
MODEL 9
REMARK VINA RESULT:      -5.3      3.678      8.335
REMARK  7 active torsions:
REMARK  status: ('A' for Active; 'I' for Inactive)
REMARK    1  A    between atoms: O_3  and  C_13 
REMARK    2  A    between atoms: O_3  and  C_19 
REMARK    3  A    between atoms: O_5  and  C_22 
REMARK    4  A    between atoms: N_6  and  C_18 
REMARK       I    between atoms: N_7  and  C_20 
REMARK    5  A    between atoms: N_10  and  C_26 
REMARK    6  A    between atoms: N_10  and  C_30 
REMARK    7  A    between atoms: C_18  and  C_20 
ROOT
HETATM    1  N   UNK N   1      -7.352  21.422  50.789  0.00  0.00    -0.351 N 
ATOM      2  HN  UNK N   1      -8.289  21.033  50.886  1.00  0.00     0.166 HD
HETATM    3  N   UNK N   1      -5.933  23.113  49.961  0.00  0.00    -0.338 N 
ATOM      4  HN  UNK N   1      -5.819  23.975  49.426  1.00  0.00     0.168 HD
HETATM    5  C   UNK N   1      -4.119  19.428  52.495  0.00  0.00     0.103 A 
HETATM    6  C   UNK N   1      -3.916  20.639  51.819  0.00  0.00     0.057 A 
HETATM    7  C   UNK N   1      -5.418  18.929  52.659  0.00  0.00     0.103 A 
HETATM    8  C   UNK N   1      -5.005  21.335  51.260  0.00  0.00     0.038 A 
HETATM    9  C   UNK N   1      -6.506  19.608  52.092  0.00  0.00     0.070 A 
HETATM   10  C   UNK N   1      -6.301  20.794  51.377  0.00  0.00     0.050 A 
HETATM   11  C   UNK N   1      -4.843  22.541  50.545  0.00  0.00     0.119 A 
HETATM   12  C   UNK N   1      -7.170  22.562  50.073  0.00  0.00     0.182 A 
ENDROOT
BRANCH   5  13
HETATM   13  O   UNK N   1      -3.062  18.719  52.962  0.00  0.00    -0.343 OA
BRANCH  13  14
HETATM   14  C   UNK N   1      -2.943  18.362  54.299  0.00  0.00     0.132 C 
HETATM   15  C   UNK N   1      -2.379  19.552  55.081  0.00  0.00     0.062 C 
HETATM   16  C   UNK N   1      -2.212  19.179  56.560  0.00  0.00     0.275 C 
HETATM   17  N   UNK N   1      -1.302  18.019  56.682  0.00  0.00     0.097 N 
HETATM   18  C   UNK N   1      -1.863  16.845  55.973  0.00  0.00     0.275 C 
HETATM   19  C   UNK N   1      -2.023  17.149  54.476  0.00  0.00     0.062 C 
BRANCH  17  20
HETATM   20  C   UNK N   1      -0.998  17.663  58.084  0.00  0.00     0.374 C 
BRANCH  20  21
HETATM   21  C   UNK N   1       0.325  18.225  58.549  0.00  0.00     0.245 C 
HETATM   22  O   UNK N   1       1.305  17.494  58.581  0.00  0.00    -0.272 OA
HETATM   23  N   UNK N   1       0.412  19.522  58.962  0.00  0.00    -0.364 N 
HETATM   24  C   UNK N   1       1.648  20.119  59.433  0.00  0.00     0.149 C 
HETATM   25  H   UNK N   1      -0.437  20.106  58.973  0.00  0.00     0.161 HD
ENDBRANCH  20  21
ENDBRANCH  17  20
ENDBRANCH  13  14
ENDBRANCH   5  13
BRANCH   7  26
HETATM   26  O   UNK N   1      -5.619  17.770  53.321  0.00  0.00    -0.353 OA
HETATM   27  C   UNK N   1      -5.974  16.617  52.656  0.00  0.00     0.210 C 
ENDBRANCH   7  26
BRANCH  11  28
HETATM   28  N   UNK N   1      -3.578  23.206  50.498  0.00  0.00    -0.339 N 
HETATM   29  H   UNK N   1      -2.789  22.709  50.058  0.00  0.00     0.167 HD
BRANCH  28  30
HETATM   30  C   UNK N   1      -3.304  24.482  51.073  0.00  0.00     0.074 A 
HETATM   31  C   UNK N   1      -2.788  24.550  52.382  0.00  0.00     0.164 A 
HETATM   32  F   UNK N   1      -2.614  23.414  53.106  0.00  0.00    -0.202 F 
HETATM   33  C   UNK N   1      -2.460  25.787  52.950  0.00  0.00     0.074 A 
HETATM   34 Cl   UNK N   1      -1.830  25.868  54.586  0.00  0.00    -0.081 Cl
HETATM   35  C   UNK N   1      -2.625  26.960  52.211  0.00  0.00     0.027 A 
HETATM   36  C   UNK N   1      -3.127  26.902  50.909  0.00  0.00     0.004 A 
HETATM   37  C   UNK N   1      -3.472  25.674  50.341  0.00  0.00     0.033 A 
ENDBRANCH  28  30
ENDBRANCH  11  28
TORSDOF 7
ENDMDL
