MODEL 1
REMARK VINA RESULT:      -8.0      0.000      0.000
REMARK  6 active torsions:
REMARK  status: ('A' for Active; 'I' for Inactive)
REMARK    1  A    between atoms: O_2  and  C_31 
REMARK    2  A    between atoms: O_2  and  C_36 
REMARK    3  A    between atoms: N_5  and  C_20 
REMARK    4  A    between atoms: N_5  and  C_21 
REMARK    5  A    between atoms: N_6  and  C_26 
REMARK    6  A    between atoms: N_6  and  C_28 
ROOT
HETATM    1  N   UNK N   1      -5.866  17.659  52.724  0.00  0.00    -0.352 N 
ATOM      2  HN  UNK N   1      -5.539  17.507  53.678  1.00  0.00     0.166 HD
HETATM    3  N   UNK N   1      -7.216  16.991  50.914  0.00  0.00    -0.338 N 
ATOM      4  HN  UNK N   1      -7.908  16.349  50.529  1.00  0.00     0.168 HD
HETATM    5  C   UNK N   1      -4.395  20.913  50.552  0.00  0.00     0.036 A 
HETATM    6  C   UNK N   1      -5.800  18.906  50.679  0.00  0.00     0.037 A 
HETATM    7  C   UNK N   1      -5.312  20.021  49.959  0.00  0.00     0.047 A 
HETATM    8  C   UNK N   1      -3.942  20.647  51.856  0.00  0.00     0.032 A 
HETATM    9  C   UNK N   1      -5.368  18.697  52.004  0.00  0.00     0.047 A 
HETATM   10  C   UNK N   1      -6.738  18.000  50.135  0.00  0.00     0.119 A 
HETATM   11  C   UNK N   1      -4.429  19.555  52.577  0.00  0.00     0.033 A 
HETATM   12  C   UNK N   1      -6.791  16.820  52.193  0.00  0.00     0.182 A 
ENDROOT
BRANCH  10  13
HETATM   13  N   UNK N   1      -7.121  18.078  48.764  0.00  0.00    -0.342 N 
HETATM   14  H   UNK N   1      -7.745  18.846  48.478  0.00  0.00     0.167 HD
BRANCH  13  15
HETATM   15  C   UNK N   1      -6.666  17.202  47.737  0.00  0.00     0.034 A 
HETATM   16  C   UNK N   1      -5.967  17.671  46.605  0.00  0.00     0.039 A 
HETATM   17  C   UNK N   1      -5.448  16.761  45.664  0.00  0.00    -0.026 A 
HETATM   18  C   UNK N   1      -5.645  15.381  45.855  0.00  0.00     0.082 A 
HETATM   19  C   UNK N   1      -4.635  17.253  44.501  0.00  0.00     0.051 C 
HETATM   20  C   UNK N   1      -6.353  14.925  46.974  0.00  0.00     0.040 A 
HETATM   21  C   UNK N   1      -6.848  15.826  47.908  0.00  0.00     0.032 A 
BRANCH  18  22
HETATM   22  O   UNK N   1      -5.139  14.481  44.976  0.00  0.00    -0.310 OA
BRANCH  22  23
HETATM   23  C   UNK N   1      -3.958  13.856  45.204  0.00  0.00     0.081 A 
HETATM   24  C   UNK N   1      -3.363  13.902  46.487  0.00  0.00     0.087 A 
HETATM   25  C   UNK N   1      -2.151  13.249  46.660  0.00  0.00     0.130 A 
HETATM   26  N   UNK N   1      -1.570  12.589  45.657  0.00  0.00    -0.250 N 
HETATM   27  N   UNK N   1      -1.417  13.181  47.782  0.00  0.00    -0.336 N 
HETATM   28  N   UNK N   1      -0.441  12.068  46.097  0.00  0.00    -0.288 N 
HETATM   29  C   UNK N   1      -2.095  12.504  44.410  0.00  0.00     0.121 A 
HETATM   30  C   UNK N   1      -0.349  12.434  47.398  0.00  0.00     0.199 A 
ATOM     31  HN  UNK N   1       0.224  11.506  45.567  1.00  0.00     0.188 HD
HETATM   32  C   UNK N   1      -3.314  13.156  44.158  0.00  0.00     0.056 A 
ATOM     33  HN  UNK N   1      -1.612  13.589  48.697  1.00  0.00     0.168 HD
ENDBRANCH  22  23
ENDBRANCH  18  22
ENDBRANCH  13  15
ENDBRANCH  10  13
BRANCH   5  34
HETATM   34  N   UNK N   1      -3.907  22.087  49.887  0.00  0.00    -0.322 N 
HETATM   35  H   UNK N   1      -3.400  21.952  49.000  0.00  0.00     0.169 HD
BRANCH  34  36
HETATM   36  C   UNK N   1      -3.913  23.422  50.405  0.00  0.00     0.220 C 
HETATM   37  O   UNK N   1      -5.017  23.969  50.926  0.00  0.00    -0.320 OA
HETATM   38  C   UNK N   1      -4.805  25.302  51.214  0.00  0.00     0.209 C 
HETATM   39  C   UNK N   1      -3.281  25.489  50.939  0.00  0.00     0.048 C 
HETATM   40  N   UNK N   1      -2.924  24.219  50.356  0.00  0.00    -0.346 N 
HETATM   41  C   UNK N   1      -3.011  26.654  49.975  0.00  0.00     0.040 C 
HETATM   42  C   UNK N   1      -2.492  25.675  52.243  0.00  0.00     0.040 C 
ATOM     43  HN  UNK N   1      -2.010  23.994  49.963  1.00  0.00     0.164 HD
ENDBRANCH  34  36
ENDBRANCH   5  34
TORSDOF 6
ENDMDL
MODEL 2
REMARK VINA RESULT:      -7.6      5.492     10.641
REMARK  6 active torsions:
REMARK  status: ('A' for Active; 'I' for Inactive)
REMARK    1  A    between atoms: O_2  and  C_31 
REMARK    2  A    between atoms: O_2  and  C_36 
REMARK    3  A    between atoms: N_5  and  C_20 
REMARK    4  A    between atoms: N_5  and  C_21 
REMARK    5  A    between atoms: N_6  and  C_26 
REMARK    6  A    between atoms: N_6  and  C_28 
ROOT
HETATM    1  N   UNK N   1      -5.837  18.555  51.352  0.00  0.00    -0.352 N 
ATOM      2  HN  UNK N   1      -6.308  17.687  51.606  1.00  0.00     0.166 HD
HETATM    3  N   UNK N   1      -5.552  20.341  49.843  0.00  0.00    -0.338 N 
ATOM      4  HN  UNK N   1      -5.827  20.809  48.980  1.00  0.00     0.168 HD
HETATM    5  C   UNK N   1      -2.911  20.113  53.897  0.00  0.00     0.036 A 
HETATM    6  C   UNK N   1      -4.193  20.239  51.811  0.00  0.00     0.037 A 
HETATM    7  C   UNK N   1      -3.220  20.769  52.688  0.00  0.00     0.047 A 
HETATM    8  C   UNK N   1      -3.557  18.900  54.192  0.00  0.00     0.032 A 
HETATM    9  C   UNK N   1      -4.864  19.049  52.160  0.00  0.00     0.047 A 
HETATM   10  C   UNK N   1      -4.554  20.873  50.601  0.00  0.00     0.119 A 
HETATM   11  C   UNK N   1      -4.529  18.378  53.337  0.00  0.00     0.033 A 
HETATM   12  C   UNK N   1      -6.190  19.199  50.210  0.00  0.00     0.182 A 
ENDROOT
BRANCH  10  13
HETATM   13  N   UNK N   1      -3.832  22.007  50.125  0.00  0.00    -0.342 N 
HETATM   14  H   UNK N   1      -3.082  21.850  49.438  0.00  0.00     0.167 HD
BRANCH  13  15
HETATM   15  C   UNK N   1      -4.101  23.358  50.488  0.00  0.00     0.034 A 
HETATM   16  C   UNK N   1      -3.179  24.138  51.215  0.00  0.00     0.039 A 
HETATM   17  C   UNK N   1      -3.442  25.499  51.466  0.00  0.00    -0.026 A 
HETATM   18  C   UNK N   1      -4.640  26.070  50.997  0.00  0.00     0.082 A 
HETATM   19  C   UNK N   1      -2.426  26.352  52.170  0.00  0.00     0.051 C 
HETATM   20  C   UNK N   1      -5.557  25.282  50.288  0.00  0.00     0.040 A 
HETATM   21  C   UNK N   1      -5.285  23.946  50.029  0.00  0.00     0.032 A 
BRANCH  18  22
HETATM   22  O   UNK N   1      -4.910  27.381  51.206  0.00  0.00    -0.310 OA
BRANCH  22  23
HETATM   23  C   UNK N   1      -5.063  28.246  50.173  0.00  0.00     0.081 A 
HETATM   24  C   UNK N   1      -6.261  28.988  50.037  0.00  0.00     0.087 A 
HETATM   25  C   UNK N   1      -6.363  29.854  48.958  0.00  0.00     0.130 A 
HETATM   26  N   UNK N   1      -5.365  29.994  48.084  0.00  0.00    -0.250 N 
HETATM   27  N   UNK N   1      -7.409  30.634  48.637  0.00  0.00    -0.336 N 
HETATM   28  N   UNK N   1      -5.728  30.873  47.170  0.00  0.00    -0.288 N 
HETATM   29  C   UNK N   1      -4.194  29.317  48.167  0.00  0.00     0.121 A 
HETATM   30  C   UNK N   1      -6.981  31.261  47.510  0.00  0.00     0.199 A 
ATOM     31  HN  UNK N   1      -5.180  31.194  46.373  1.00  0.00     0.188 HD
HETATM   32  C   UNK N   1      -4.026  28.409  49.227  0.00  0.00     0.056 A 
ATOM     33  HN  UNK N   1      -8.302  30.731  49.120  1.00  0.00     0.168 HD
ENDBRANCH  22  23
ENDBRANCH  18  22
ENDBRANCH  13  15
ENDBRANCH  10  13
BRANCH   5  34
HETATM   34  N   UNK N   1      -1.969  20.632  54.847  0.00  0.00    -0.322 N 
HETATM   35  H   UNK N   1      -1.366  19.953  55.336  0.00  0.00     0.169 HD
BRANCH  34  36
HETATM   36  C   UNK N   1      -1.883  21.985  55.308  0.00  0.00     0.220 C 
HETATM   37  O   UNK N   1      -2.927  22.819  55.239  0.00  0.00    -0.320 OA
HETATM   38  C   UNK N   1      -2.550  24.096  55.601  0.00  0.00     0.209 C 
HETATM   39  C   UNK N   1      -1.081  23.908  56.093  0.00  0.00     0.048 C 
HETATM   40  N   UNK N   1      -0.822  22.534  55.745  0.00  0.00    -0.346 N 
HETATM   41  C   UNK N   1      -0.112  24.868  55.383  0.00  0.00     0.040 C 
HETATM   42  C   UNK N   1      -0.973  24.063  57.616  0.00  0.00     0.040 C 
ATOM     43  HN  UNK N   1       0.081  22.068  55.836  1.00  0.00     0.164 HD
ENDBRANCH  34  36
ENDBRANCH   5  34
TORSDOF 6
ENDMDL
MODEL 3
REMARK VINA RESULT:      -7.5      3.071     11.280
REMARK  6 active torsions:
REMARK  status: ('A' for Active; 'I' for Inactive)
REMARK    1  A    between atoms: O_2  and  C_31 
REMARK    2  A    between atoms: O_2  and  C_36 
REMARK    3  A    between atoms: N_5  and  C_20 
REMARK    4  A    between atoms: N_5  and  C_21 
REMARK    5  A    between atoms: N_6  and  C_26 
REMARK    6  A    between atoms: N_6  and  C_28 
ROOT
HETATM    1  N   UNK N   1      -5.757  18.372  52.383  0.00  0.00    -0.352 N 
ATOM      2  HN  UNK N   1      -5.762  17.590  53.037  1.00  0.00     0.166 HD
HETATM    3  N   UNK N   1      -5.471  20.675  51.979  0.00  0.00    -0.338 N 
ATOM      4  HN  UNK N   1      -5.246  21.603  52.334  1.00  0.00     0.168 HD
HETATM    5  C   UNK N   1      -6.577  17.668  48.346  0.00  0.00     0.036 A 
HETATM    6  C   UNK N   1      -6.065  19.229  50.166  0.00  0.00     0.037 A 
HETATM    7  C   UNK N   1      -6.324  18.978  48.799  0.00  0.00     0.047 A 
HETATM    8  C   UNK N   1      -6.612  16.623  49.286  0.00  0.00     0.032 A 
HETATM    9  C   UNK N   1      -6.053  18.153  51.076  0.00  0.00     0.047 A 
HETATM   10  C   UNK N   1      -5.781  20.522  50.662  0.00  0.00     0.119 A 
HETATM   11  C   UNK N   1      -6.344  16.862  50.635  0.00  0.00     0.033 A 
HETATM   12  C   UNK N   1      -5.454  19.617  52.832  0.00  0.00     0.182 A 
ENDROOT
BRANCH  10  13
HETATM   13  N   UNK N   1      -5.900  21.670  49.825  0.00  0.00    -0.342 N 
HETATM   14  H   UNK N   1      -6.348  21.555  48.906  0.00  0.00     0.167 HD
BRANCH  13  15
HETATM   15  C   UNK N   1      -5.491  22.986  50.181  0.00  0.00     0.034 A 
HETATM   16  C   UNK N   1      -4.144  23.399  50.110  0.00  0.00     0.039 A 
HETATM   17  C   UNK N   1      -3.797  24.738  50.376  0.00  0.00    -0.026 A 
HETATM   18  C   UNK N   1      -4.804  25.657  50.727  0.00  0.00     0.082 A 
HETATM   19  C   UNK N   1      -2.376  25.200  50.223  0.00  0.00     0.051 C 
HETATM   20  C   UNK N   1      -6.136  25.234  50.809  0.00  0.00     0.040 A 
HETATM   21  C   UNK N   1      -6.475  23.917  50.529  0.00  0.00     0.032 A 
BRANCH  18  22
HETATM   22  O   UNK N   1      -4.502  26.956  50.968  0.00  0.00    -0.310 OA
BRANCH  22  23
HETATM   23  C   UNK N   1      -4.791  27.929  50.069  0.00  0.00     0.081 A 
HETATM   24  C   UNK N   1      -5.998  28.660  50.174  0.00  0.00     0.087 A 
HETATM   25  C   UNK N   1      -6.244  29.640  49.223  0.00  0.00     0.130 A 
HETATM   26  N   UNK N   1      -5.369  29.896  48.249  0.00  0.00    -0.250 N 
HETATM   27  N   UNK N   1      -7.325  30.431  49.131  0.00  0.00    -0.336 N 
HETATM   28  N   UNK N   1      -5.851  30.865  47.496  0.00  0.00    -0.288 N 
HETATM   29  C   UNK N   1      -4.194  29.235  48.103  0.00  0.00     0.121 A 
HETATM   30  C   UNK N   1      -7.050  31.189  48.038  0.00  0.00     0.199 A 
ATOM     31  HN  UNK N   1      -5.413  31.284  46.677  1.00  0.00     0.188 HD
HETATM   32  C   UNK N   1      -3.886  28.217  49.022  0.00  0.00     0.056 A 
ATOM     33  HN  UNK N   1      -8.149  30.457  49.733  1.00  0.00     0.168 HD
ENDBRANCH  22  23
ENDBRANCH  18  22
ENDBRANCH  13  15
ENDBRANCH  10  13
BRANCH   5  34
HETATM   34  N   UNK N   1      -6.796  17.348  46.964  0.00  0.00    -0.322 N 
HETATM   35  H   UNK N   1      -7.740  17.510  46.584  0.00  0.00     0.169 HD
BRANCH  34  36
HETATM   36  C   UNK N   1      -5.879  16.679  46.091  0.00  0.00     0.220 C 
HETATM   37  O   UNK N   1      -5.120  17.351  45.218  0.00  0.00    -0.320 OA
HETATM   38  C   UNK N   1      -4.440  16.477  44.395  0.00  0.00     0.209 C 
HETATM   39  C   UNK N   1      -4.766  15.081  45.011  0.00  0.00     0.048 C 
HETATM   40  N   UNK N   1      -5.752  15.416  46.008  0.00  0.00    -0.346 N 
HETATM   41  C   UNK N   1      -5.326  14.108  43.961  0.00  0.00     0.040 C 
HETATM   42  C   UNK N   1      -3.541  14.473  45.710  0.00  0.00     0.040 C 
ATOM     43  HN  UNK N   1      -6.271  14.739  46.567  1.00  0.00     0.164 HD
ENDBRANCH  34  36
ENDBRANCH   5  34
TORSDOF 6
ENDMDL
MODEL 4
REMARK VINA RESULT:      -7.4     17.435     20.983
REMARK  6 active torsions:
REMARK  status: ('A' for Active; 'I' for Inactive)
REMARK    1  A    between atoms: O_2  and  C_31 
REMARK    2  A    between atoms: O_2  and  C_36 
REMARK    3  A    between atoms: N_5  and  C_20 
REMARK    4  A    between atoms: N_5  and  C_21 
REMARK    5  A    between atoms: N_6  and  C_26 
REMARK    6  A    between atoms: N_6  and  C_28 
ROOT
HETATM    1  N   UNK N   1       9.834  27.940  57.567  0.00  0.00    -0.352 N 
ATOM      2  HN  UNK N   1      10.357  27.447  58.292  1.00  0.00     0.166 HD
HETATM    3  N   UNK N   1       9.600  28.567  55.309  0.00  0.00    -0.338 N 
ATOM      4  HN  UNK N   1       9.943  28.525  54.350  1.00  0.00     0.168 HD
HETATM    5  C   UNK N   1       6.342  29.990  58.599  0.00  0.00     0.036 A 
HETATM    6  C   UNK N   1       7.995  29.331  56.913  0.00  0.00     0.037 A 
HETATM    7  C   UNK N   1       6.804  30.005  57.268  0.00  0.00     0.047 A 
HETATM    8  C   UNK N   1       7.110  29.331  59.574  0.00  0.00     0.032 A 
HETATM    9  C   UNK N   1       8.716  28.633  57.903  0.00  0.00     0.047 A 
HETATM   10  C   UNK N   1       8.485  29.297  55.588  0.00  0.00     0.119 A 
HETATM   11  C   UNK N   1       8.280  28.653  59.229  0.00  0.00     0.033 A 
HETATM   12  C   UNK N   1      10.268  27.893  56.282  0.00  0.00     0.182 A 
ENDROOT
BRANCH  10  13
HETATM   13  N   UNK N   1       7.879  30.082  54.563  0.00  0.00    -0.342 N 
HETATM   14  H   UNK N   1       6.851  30.117  54.524  0.00  0.00     0.167 HD
BRANCH  13  15
HETATM   15  C   UNK N   1       8.586  30.870  53.611  0.00  0.00     0.034 A 
HETATM   16  C   UNK N   1       8.870  30.402  52.311  0.00  0.00     0.039 A 
HETATM   17  C   UNK N   1       9.483  31.250  51.369  0.00  0.00    -0.026 A 
HETATM   18  C   UNK N   1       9.824  32.565  51.740  0.00  0.00     0.082 A 
HETATM   19  C   UNK N   1       9.713  30.782  49.961  0.00  0.00     0.051 C 
HETATM   20  C   UNK N   1       9.552  33.015  53.038  0.00  0.00     0.040 A 
HETATM   21  C   UNK N   1       8.931  32.180  53.958  0.00  0.00     0.032 A 
BRANCH  18  22
HETATM   22  O   UNK N   1      10.397  33.409  50.849  0.00  0.00    -0.310 OA
BRANCH  22  23
HETATM   23  C   UNK N   1      11.638  33.916  51.050  0.00  0.00     0.081 A 
HETATM   24  C   UNK N   1      12.775  33.080  50.936  0.00  0.00     0.087 A 
HETATM   25  C   UNK N   1      14.020  33.652  51.158  0.00  0.00     0.130 A 
HETATM   26  N   UNK N   1      14.146  34.947  51.456  0.00  0.00    -0.250 N 
HETATM   27  N   UNK N   1      15.215  33.041  51.116  0.00  0.00    -0.336 N 
HETATM   28  N   UNK N   1      15.426  35.218  51.612  0.00  0.00    -0.288 N 
HETATM   29  C   UNK N   1      13.095  35.796  51.571  0.00  0.00     0.121 A 
HETATM   30  C   UNK N   1      16.079  34.049  51.405  0.00  0.00     0.199 A 
ATOM     31  HN  UNK N   1      15.840  36.121  51.841  1.00  0.00     0.188 HD
HETATM   32  C   UNK N   1      11.802  35.281  51.375  0.00  0.00     0.056 A 
ATOM     33  HN  UNK N   1      15.423  32.062  50.916  1.00  0.00     0.168 HD
ENDBRANCH  22  23
ENDBRANCH  18  22
ENDBRANCH  13  15
ENDBRANCH  10  13
BRANCH   5  34
HETATM   34  N   UNK N   1       5.114  30.613  59.006  0.00  0.00    -0.322 N 
HETATM   35  H   UNK N   1       5.135  31.628  59.187  0.00  0.00     0.169 HD
BRANCH  34  36
HETATM   36  C   UNK N   1       3.892  29.946  59.340  0.00  0.00     0.220 C 
HETATM   37  O   UNK N   1       3.179  29.282  58.423  0.00  0.00    -0.320 OA
HETATM   38  C   UNK N   1       1.979  28.861  58.957  0.00  0.00     0.209 C 
HETATM   39  C   UNK N   1       2.111  29.228  60.467  0.00  0.00     0.048 C 
HETATM   40  N   UNK N   1       3.342  29.979  60.486  0.00  0.00    -0.346 N 
HETATM   41  C   UNK N   1       0.923  30.070  60.958  0.00  0.00     0.040 C 
HETATM   42  C   UNK N   1       2.281  27.976  61.339  0.00  0.00     0.040 C 
ATOM     43  HN  UNK N   1       3.717  30.465  61.301  1.00  0.00     0.164 HD
ENDBRANCH  34  36
ENDBRANCH   5  34
TORSDOF 6
ENDMDL
MODEL 5
REMARK VINA RESULT:      -7.4     18.143     20.901
REMARK  6 active torsions:
REMARK  status: ('A' for Active; 'I' for Inactive)
REMARK    1  A    between atoms: O_2  and  C_31 
REMARK    2  A    between atoms: O_2  and  C_36 
REMARK    3  A    between atoms: N_5  and  C_20 
REMARK    4  A    between atoms: N_5  and  C_21 
REMARK    5  A    between atoms: N_6  and  C_26 
REMARK    6  A    between atoms: N_6  and  C_28 
ROOT
HETATM    1  N   UNK N   1       9.695  27.926  57.508  0.00  0.00    -0.352 N 
ATOM      2  HN  UNK N   1      10.207  27.436  58.241  1.00  0.00     0.166 HD
HETATM    3  N   UNK N   1       9.552  28.641  55.268  0.00  0.00    -0.338 N 
ATOM      4  HN  UNK N   1       9.953  28.667  54.331  1.00  0.00     0.168 HD
HETATM    5  C   UNK N   1       6.015  29.690  58.408  0.00  0.00     0.036 A 
HETATM    6  C   UNK N   1       7.807  29.222  56.801  0.00  0.00     0.037 A 
HETATM    7  C   UNK N   1       6.553  29.797  57.109  0.00  0.00     0.047 A 
HETATM    8  C   UNK N   1       6.768  29.038  59.399  0.00  0.00     0.032 A 
HETATM    9  C   UNK N   1       8.514  28.527  57.803  0.00  0.00     0.047 A 
HETATM   10  C   UNK N   1       8.375  29.282  55.508  0.00  0.00     0.119 A 
HETATM   11  C   UNK N   1       8.000  28.456  59.098  0.00  0.00     0.033 A 
HETATM   12  C   UNK N   1      10.206  27.968  56.251  0.00  0.00     0.182 A 
ENDROOT
BRANCH  10  13
HETATM   13  N   UNK N   1       7.777  30.072  54.482  0.00  0.00    -0.342 N 
HETATM   14  H   UNK N   1       6.750  30.106  54.433  0.00  0.00     0.167 HD
BRANCH  13  15
HETATM   15  C   UNK N   1       8.493  30.867  53.542  0.00  0.00     0.034 A 
HETATM   16  C   UNK N   1       8.751  30.426  52.227  0.00  0.00     0.039 A 
HETATM   17  C   UNK N   1       9.374  31.283  51.300  0.00  0.00    -0.026 A 
HETATM   18  C   UNK N   1       9.750  32.579  51.700  0.00  0.00     0.082 A 
HETATM   19  C   UNK N   1       9.577  30.845  49.878  0.00  0.00     0.051 C 
HETATM   20  C   UNK N   1       9.503  33.003  53.012  0.00  0.00     0.040 A 
HETATM   21  C   UNK N   1       8.873  32.160  53.918  0.00  0.00     0.032 A 
BRANCH  18  22
HETATM   22  O   UNK N   1      10.333  33.433  50.823  0.00  0.00    -0.310 OA
BRANCH  22  23
HETATM   23  C   UNK N   1      11.574  33.934  51.042  0.00  0.00     0.081 A 
HETATM   24  C   UNK N   1      12.713  33.111  50.880  0.00  0.00     0.087 A 
HETATM   25  C   UNK N   1      13.957  33.677  51.123  0.00  0.00     0.130 A 
HETATM   26  N   UNK N   1      14.079  34.955  51.483  0.00  0.00    -0.250 N 
HETATM   27  N   UNK N   1      15.154  33.074  51.042  0.00  0.00    -0.336 N 
HETATM   28  N   UNK N   1      15.359  35.225  51.645  0.00  0.00    -0.288 N 
HETATM   29  C   UNK N   1      13.025  35.793  51.647  0.00  0.00     0.121 A 
HETATM   30  C   UNK N   1      16.015  34.070  51.376  0.00  0.00     0.199 A 
ATOM     31  HN  UNK N   1      15.771  36.118  51.916  1.00  0.00     0.188 HD
HETATM   32  C   UNK N   1      11.733  35.283  51.433  0.00  0.00     0.056 A 
ATOM     33  HN  UNK N   1      15.366  32.107  50.793  1.00  0.00     0.168 HD
ENDBRANCH  22  23
ENDBRANCH  18  22
ENDBRANCH  13  15
ENDBRANCH  10  13
BRANCH   5  34
HETATM   34  N   UNK N   1       4.726  30.211  58.764  0.00  0.00    -0.322 N 
HETATM   35  H   UNK N   1       4.164  29.667  59.435  0.00  0.00     0.169 HD
BRANCH  34  36
HETATM   36  C   UNK N   1       4.066  31.332  58.164  0.00  0.00     0.220 C 
HETATM   37  O   UNK N   1       4.158  32.562  58.683  0.00  0.00    -0.320 OA
HETATM   38  C   UNK N   1       3.319  33.430  58.016  0.00  0.00     0.209 C 
HETATM   39  C   UNK N   1       2.777  32.568  56.834  0.00  0.00     0.048 C 
HETATM   40  N   UNK N   1       3.294  31.261  57.157  0.00  0.00    -0.346 N 
HETATM   41  C   UNK N   1       1.241  32.574  56.777  0.00  0.00     0.040 C 
HETATM   42  C   UNK N   1       3.369  33.017  55.491  0.00  0.00     0.040 C 
ATOM     43  HN  UNK N   1       3.073  30.404  56.649  1.00  0.00     0.164 HD
ENDBRANCH  34  36
ENDBRANCH   5  34
TORSDOF 6
ENDMDL
MODEL 6
REMARK VINA RESULT:      -7.4      7.032     11.109
REMARK  6 active torsions:
REMARK  status: ('A' for Active; 'I' for Inactive)
REMARK    1  A    between atoms: O_2  and  C_31 
REMARK    2  A    between atoms: O_2  and  C_36 
REMARK    3  A    between atoms: N_5  and  C_20 
REMARK    4  A    between atoms: N_5  and  C_21 
REMARK    5  A    between atoms: N_6  and  C_26 
REMARK    6  A    between atoms: N_6  and  C_28 
ROOT
HETATM    1  N   UNK N   1      -1.762  12.969  56.376  0.00  0.00    -0.352 N 
ATOM      2  HN  UNK N   1      -1.787  12.103  56.914  1.00  0.00     0.166 HD
HETATM    3  N   UNK N   1      -2.842  14.501  54.951  0.00  0.00    -0.338 N 
ATOM      4  HN  UNK N   1      -3.680  14.781  54.442  1.00  0.00     0.168 HD
HETATM    5  C   UNK N   1       1.718  15.284  56.385  0.00  0.00     0.036 A 
HETATM    6  C   UNK N   1      -0.572  14.899  55.598  0.00  0.00     0.037 A 
HETATM    7  C   UNK N   1       0.602  15.686  55.624  0.00  0.00     0.047 A 
HETATM    8  C   UNK N   1       1.656  14.065  57.083  0.00  0.00     0.032 A 
HETATM    9  C   UNK N   1      -0.623  13.709  56.351  0.00  0.00     0.047 A 
HETATM   10  C   UNK N   1      -1.724  15.273  54.869  0.00  0.00     0.119 A 
HETATM   11  C   UNK N   1       0.496  13.290  57.073  0.00  0.00     0.033 A 
HETATM   12  C   UNK N   1      -2.867  13.365  55.695  0.00  0.00     0.182 A 
ENDROOT
BRANCH  10  13
HETATM   13  N   UNK N   1      -1.700  16.395  53.989  0.00  0.00    -0.342 N 
HETATM   14  H   UNK N   1      -1.113  16.336  53.145  0.00  0.00     0.167 HD
BRANCH  13  15
HETATM   15  C   UNK N   1      -2.471  17.581  54.155  0.00  0.00     0.034 A 
HETATM   16  C   UNK N   1      -2.139  18.564  55.111  0.00  0.00     0.039 A 
HETATM   17  C   UNK N   1      -2.868  19.767  55.174  0.00  0.00    -0.026 A 
HETATM   18  C   UNK N   1      -3.940  19.974  54.286  0.00  0.00     0.082 A 
HETATM   19  C   UNK N   1      -2.467  20.848  56.137  0.00  0.00     0.051 C 
HETATM   20  C   UNK N   1      -4.272  18.985  53.351  0.00  0.00     0.040 A 
HETATM   21  C   UNK N   1      -3.538  17.808  53.280  0.00  0.00     0.032 A 
BRANCH  18  22
HETATM   22  O   UNK N   1      -4.647  21.130  54.312  0.00  0.00    -0.310 OA
BRANCH  22  23
HETATM   23  C   UNK N   1      -4.610  22.005  53.277  0.00  0.00     0.081 A 
HETATM   24  C   UNK N   1      -3.460  22.801  53.058  0.00  0.00     0.087 A 
HETATM   25  C   UNK N   1      -3.481  23.684  51.987  0.00  0.00     0.130 A 
HETATM   26  N   UNK N   1      -4.541  23.772  51.182  0.00  0.00    -0.250 N 
HETATM   27  N   UNK N   1      -2.510  24.533  51.615  0.00  0.00    -0.336 N 
HETATM   28  N   UNK N   1      -4.291  24.679  50.258  0.00  0.00    -0.288 N 
HETATM   29  C   UNK N   1      -5.666  23.031  51.337  0.00  0.00     0.121 A 
HETATM   30  C   UNK N   1      -3.047  25.144  50.527  0.00  0.00     0.199 A 
ATOM     31  HN  UNK N   1      -4.906  24.969  49.498  1.00  0.00     0.188 HD
HETATM   32  C   UNK N   1      -5.721  22.127  52.412  0.00  0.00     0.056 A 
ATOM     33  HN  UNK N   1      -1.596  24.683  52.042  1.00  0.00     0.168 HD
ENDBRANCH  22  23
ENDBRANCH  18  22
ENDBRANCH  13  15
ENDBRANCH  10  13
BRANCH   5  34
HETATM   34  N   UNK N   1       2.916  16.068  56.488  0.00  0.00    -0.322 N 
HETATM   35  H   UNK N   1       3.422  16.277  55.615  0.00  0.00     0.169 HD
BRANCH  34  36
HETATM   36  C   UNK N   1       3.573  16.462  57.698  0.00  0.00     0.220 C 
HETATM   37  O   UNK N   1       3.145  17.502  58.424  0.00  0.00    -0.320 OA
HETATM   38  C   UNK N   1       4.027  17.769  59.451  0.00  0.00     0.209 C 
HETATM   39  C   UNK N   1       5.042  16.587  59.367  0.00  0.00     0.048 C 
HETATM   40  N   UNK N   1       4.635  15.930  58.150  0.00  0.00    -0.346 N 
HETATM   41  C   UNK N   1       6.494  17.083  59.288  0.00  0.00     0.040 C 
HETATM   42  C   UNK N   1       4.868  15.610  60.539  0.00  0.00     0.040 C 
ATOM     43  HN  UNK N   1       5.128  15.150  57.714  1.00  0.00     0.164 HD
ENDBRANCH  34  36
ENDBRANCH   5  34
TORSDOF 6
ENDMDL
MODEL 7
REMARK VINA RESULT:      -7.3      6.975      8.853
REMARK  6 active torsions:
REMARK  status: ('A' for Active; 'I' for Inactive)
REMARK    1  A    between atoms: O_2  and  C_31 
REMARK    2  A    between atoms: O_2  and  C_36 
REMARK    3  A    between atoms: N_5  and  C_20 
REMARK    4  A    between atoms: N_5  and  C_21 
REMARK    5  A    between atoms: N_6  and  C_26 
REMARK    6  A    between atoms: N_6  and  C_28 
ROOT
HETATM    1  N   UNK N   1      -0.163  10.852  55.428  0.00  0.00    -0.352 N 
ATOM      2  HN  UNK N   1       0.113  10.083  56.039  1.00  0.00     0.166 HD
HETATM    3  N   UNK N   1      -1.316  11.610  53.519  0.00  0.00    -0.338 N 
ATOM      4  HN  UNK N   1      -1.912  11.404  52.719  1.00  0.00     0.168 HD
HETATM    5  C   UNK N   1       1.112  14.732  56.318  0.00  0.00     0.036 A 
HETATM    6  C   UNK N   1      -0.088  13.177  54.849  0.00  0.00     0.037 A 
HETATM    7  C   UNK N   1       0.331  14.488  55.169  0.00  0.00     0.047 A 
HETATM    8  C   UNK N   1       1.502  13.640  57.113  0.00  0.00     0.032 A 
HETATM    9  C   UNK N   1       0.274  12.110  55.696  0.00  0.00     0.047 A 
HETATM   10  C   UNK N   1      -0.891  12.888  53.723  0.00  0.00     0.119 A 
HETATM   11  C   UNK N   1       1.081  12.344  56.810  0.00  0.00     0.033 A 
HETATM   12  C   UNK N   1      -0.962  10.603  54.359  0.00  0.00     0.182 A 
ENDROOT
BRANCH  10  13
HETATM   13  N   UNK N   1      -1.189  13.895  52.758  0.00  0.00    -0.342 N 
HETATM   14  H   UNK N   1      -1.039  14.878  53.023  0.00  0.00     0.167 HD
BRANCH  13  15
HETATM   15  C   UNK N   1      -1.631  13.646  51.428  0.00  0.00     0.034 A 
HETATM   16  C   UNK N   1      -0.732  13.379  50.375  0.00  0.00     0.039 A 
HETATM   17  C   UNK N   1      -1.216  13.040  49.096  0.00  0.00    -0.026 A 
HETATM   18  C   UNK N   1      -2.605  12.984  48.875  0.00  0.00     0.082 A 
HETATM   19  C   UNK N   1      -0.262  12.677  47.994  0.00  0.00     0.051 C 
HETATM   20  C   UNK N   1      -3.490  13.265  49.924  0.00  0.00     0.040 A 
HETATM   21  C   UNK N   1      -3.008  13.582  51.186  0.00  0.00     0.032 A 
BRANCH  18  22
HETATM   22  O   UNK N   1      -3.099  12.640  47.661  0.00  0.00    -0.310 OA
BRANCH  22  23
HETATM   23  C   UNK N   1      -3.567  13.574  46.796  0.00  0.00     0.081 A 
HETATM   24  C   UNK N   1      -4.823  14.186  47.020  0.00  0.00     0.087 A 
HETATM   25  C   UNK N   1      -5.253  15.131  46.100  0.00  0.00     0.130 A 
HETATM   26  N   UNK N   1      -4.506  15.463  45.046  0.00  0.00    -0.250 N 
HETATM   27  N   UNK N   1      -6.410  15.814  46.116  0.00  0.00    -0.336 N 
HETATM   28  N   UNK N   1      -5.151  16.376  44.346  0.00  0.00    -0.288 N 
HETATM   29  C   UNK N   1      -3.293  14.918  44.784  0.00  0.00     0.121 A 
HETATM   30  C   UNK N   1      -6.317  16.587  45.002  0.00  0.00     0.199 A 
ATOM     31  HN  UNK N   1      -4.836  16.829  43.488  1.00  0.00     0.188 HD
HETATM   32  C   UNK N   1      -2.801  13.940  45.667  0.00  0.00     0.056 A 
ATOM     33  HN  UNK N   1      -7.170  15.765  46.795  1.00  0.00     0.168 HD
ENDBRANCH  22  23
ENDBRANCH  18  22
ENDBRANCH  13  15
ENDBRANCH  10  13
BRANCH   5  34
HETATM   34  N   UNK N   1       1.522  16.047  56.718  0.00  0.00    -0.322 N 
HETATM   35  H   UNK N   1       1.365  16.816  56.050  0.00  0.00     0.169 HD
BRANCH  34  36
HETATM   36  C   UNK N   1       2.272  16.384  57.891  0.00  0.00     0.220 C 
HETATM   37  O   UNK N   1       1.684  16.537  59.083  0.00  0.00    -0.320 OA
HETATM   38  C   UNK N   1       2.590  17.004  60.012  0.00  0.00     0.209 C 
HETATM   39  C   UNK N   1       3.945  16.967  59.239  0.00  0.00     0.048 C 
HETATM   40  N   UNK N   1       3.519  16.635  57.903  0.00  0.00    -0.346 N 
HETATM   41  C   UNK N   1       4.669  18.322  59.287  0.00  0.00     0.040 C 
HETATM   42  C   UNK N   1       4.860  15.849  59.759  0.00  0.00     0.040 C 
ATOM     43  HN  UNK N   1       4.128  16.606  57.085  1.00  0.00     0.164 HD
ENDBRANCH  34  36
ENDBRANCH   5  34
TORSDOF 6
ENDMDL
MODEL 8
REMARK VINA RESULT:      -7.0      5.316      9.388
REMARK  6 active torsions:
REMARK  status: ('A' for Active; 'I' for Inactive)
REMARK    1  A    between atoms: O_2  and  C_31 
REMARK    2  A    between atoms: O_2  and  C_36 
REMARK    3  A    between atoms: N_5  and  C_20 
REMARK    4  A    between atoms: N_5  and  C_21 
REMARK    5  A    between atoms: N_6  and  C_26 
REMARK    6  A    between atoms: N_6  and  C_28 
ROOT
HETATM    1  N   UNK N   1      -1.562  25.177  53.577  0.00  0.00    -0.352 N 
ATOM      2  HN  UNK N   1      -0.945  25.924  53.258  1.00  0.00     0.166 HD
HETATM    3  N   UNK N   1      -2.293  23.750  55.302  0.00  0.00    -0.338 N 
ATOM      4  HN  UNK N   1      -2.228  23.449  56.274  1.00  0.00     0.168 HD
HETATM    5  C   UNK N   1      -4.309  23.510  50.905  0.00  0.00     0.036 A 
HETATM    6  C   UNK N   1      -3.281  23.567  53.130  0.00  0.00     0.037 A 
HETATM    7  C   UNK N   1      -4.220  23.024  52.225  0.00  0.00     0.047 A 
HETATM    8  C   UNK N   1      -3.416  24.515  50.494  0.00  0.00     0.032 A 
HETATM    9  C   UNK N   1      -2.435  24.612  52.704  0.00  0.00     0.047 A 
HETATM   10  C   UNK N   1      -3.172  23.129  54.469  0.00  0.00     0.119 A 
HETATM   11  C   UNK N   1      -2.495  25.065  51.386  0.00  0.00     0.033 A 
HETATM   12  C   UNK N   1      -1.498  24.763  54.868  0.00  0.00     0.182 A 
ENDROOT
BRANCH  10  13
HETATM   13  N   UNK N   1      -3.905  21.997  54.930  0.00  0.00    -0.342 N 
HETATM   14  H   UNK N   1      -4.931  22.013  54.839  0.00  0.00     0.167 HD
BRANCH  13  15
HETATM   15  C   UNK N   1      -3.326  20.811  55.465  0.00  0.00     0.034 A 
HETATM   16  C   UNK N   1      -3.193  20.599  56.853  0.00  0.00     0.039 A 
HETATM   17  C   UNK N   1      -2.707  19.370  57.341  0.00  0.00    -0.026 A 
HETATM   18  C   UNK N   1      -2.340  18.361  56.431  0.00  0.00     0.082 A 
HETATM   19  C   UNK N   1      -2.640  19.113  58.819  0.00  0.00     0.051 C 
HETATM   20  C   UNK N   1      -2.462  18.586  55.053  0.00  0.00     0.040 A 
HETATM   21  C   UNK N   1      -2.958  19.792  54.578  0.00  0.00     0.032 A 
BRANCH  18  22
HETATM   22  O   UNK N   1      -1.888  17.162  56.872  0.00  0.00    -0.310 OA
BRANCH  22  23
HETATM   23  C   UNK N   1      -0.576  16.829  56.797  0.00  0.00     0.081 A 
HETATM   24  C   UNK N   1       0.313  17.201  57.833  0.00  0.00     0.087 A 
HETATM   25  C   UNK N   1       1.646  16.837  57.700  0.00  0.00     0.130 A 
HETATM   26  N   UNK N   1       2.075  16.150  56.640  0.00  0.00    -0.250 N 
HETATM   27  N   UNK N   1       2.650  17.101  58.552  0.00  0.00    -0.336 N 
HETATM   28  N   UNK N   1       3.370  15.942  56.772  0.00  0.00    -0.288 N 
HETATM   29  C   UNK N   1       1.270  15.761  55.621  0.00  0.00     0.121 A 
HETATM   30  C   UNK N   1       3.720  16.527  57.943  0.00  0.00     0.199 A 
ATOM     31  HN  UNK N   1       3.982  15.444  56.126  1.00  0.00     0.188 HD
HETATM   32  C   UNK N   1      -0.091  16.109  55.682  0.00  0.00     0.056 A 
ATOM     33  HN  UNK N   1       2.618  17.606  59.438  1.00  0.00     0.168 HD
ENDBRANCH  22  23
ENDBRANCH  18  22
ENDBRANCH  13  15
ENDBRANCH  10  13
BRANCH   5  34
HETATM   34  N   UNK N   1      -5.278  23.031  49.959  0.00  0.00    -0.322 N 
HETATM   35  H   UNK N   1      -5.626  23.701  49.258  0.00  0.00     0.169 HD
BRANCH  34  36
HETATM   36  C   UNK N   1      -5.932  21.758  49.984  0.00  0.00     0.220 C 
HETATM   37  O   UNK N   1      -7.253  21.649  50.166  0.00  0.00    -0.320 OA
HETATM   38  C   UNK N   1      -7.614  20.324  50.300  0.00  0.00     0.209 C 
HETATM   39  C   UNK N   1      -6.288  19.560  49.996  0.00  0.00     0.048 C 
HETATM   40  N   UNK N   1      -5.334  20.638  49.911  0.00  0.00    -0.346 N 
HETATM   41  C   UNK N   1      -5.929  18.568  51.114  0.00  0.00     0.040 C 
HETATM   42  C   UNK N   1      -6.349  18.843  48.640  0.00  0.00     0.040 C 
ATOM     43  HN  UNK N   1      -4.327  20.519  49.807  1.00  0.00     0.164 HD
ENDBRANCH  34  36
ENDBRANCH   5  34
TORSDOF 6
ENDMDL
MODEL 9
REMARK VINA RESULT:      -6.9      3.646      5.909
REMARK  6 active torsions:
REMARK  status: ('A' for Active; 'I' for Inactive)
REMARK    1  A    between atoms: O_2  and  C_31 
REMARK    2  A    between atoms: O_2  and  C_36 
REMARK    3  A    between atoms: N_5  and  C_20 
REMARK    4  A    between atoms: N_5  and  C_21 
REMARK    5  A    between atoms: N_6  and  C_26 
REMARK    6  A    between atoms: N_6  and  C_28 
ROOT
HETATM    1  N   UNK N   1      -0.364  15.609  55.346  0.00  0.00    -0.352 N 
ATOM      2  HN  UNK N   1       0.145  16.241  55.963  1.00  0.00     0.166 HD
HETATM    3  N   UNK N   1      -0.528  13.519  54.272  0.00  0.00    -0.338 N 
ATOM      4  HN  UNK N   1      -0.145  12.589  54.106  1.00  0.00     0.168 HD
HETATM    5  C   UNK N   1      -3.966  16.873  53.644  0.00  0.00     0.036 A 
HETATM    6  C   UNK N   1      -2.223  15.168  53.898  0.00  0.00     0.037 A 
HETATM    7  C   UNK N   1      -3.450  15.596  53.343  0.00  0.00     0.047 A 
HETATM    8  C   UNK N   1      -3.216  17.727  54.470  0.00  0.00     0.032 A 
HETATM    9  C   UNK N   1      -1.519  16.027  54.766  0.00  0.00     0.047 A 
HETATM   10  C   UNK N   1      -1.678  13.888  53.644  0.00  0.00     0.119 A 
HETATM   11  C   UNK N   1      -2.009  17.306  55.031  0.00  0.00     0.033 A 
HETATM   12  C   UNK N   1       0.123  14.364  55.115  0.00  0.00     0.182 A 
ENDROOT
BRANCH  10  13
HETATM   13  N   UNK N   1      -2.269  13.019  52.682  0.00  0.00    -0.342 N 
HETATM   14  H   UNK N   1      -2.960  12.330  53.010  0.00  0.00     0.167 HD
BRANCH  13  15
HETATM   15  C   UNK N   1      -2.018  13.060  51.280  0.00  0.00     0.034 A 
HETATM   16  C   UNK N   1      -0.885  13.702  50.739  0.00  0.00     0.039 A 
HETATM   17  C   UNK N   1      -0.621  13.633  49.358  0.00  0.00    -0.026 A 
HETATM   18  C   UNK N   1      -1.506  12.930  48.519  0.00  0.00     0.082 A 
HETATM   19  C   UNK N   1       0.626  14.249  48.790  0.00  0.00     0.051 C 
HETATM   20  C   UNK N   1      -2.636  12.307  49.064  0.00  0.00     0.040 A 
HETATM   21  C   UNK N   1      -2.882  12.363  50.429  0.00  0.00     0.032 A 
BRANCH  18  22
HETATM   22  O   UNK N   1      -1.267  12.830  47.189  0.00  0.00    -0.310 OA
BRANCH  22  23
HETATM   23  C   UNK N   1      -2.274  12.878  46.282  0.00  0.00     0.081 A 
HETATM   24  C   UNK N   1      -3.062  14.047  46.156  0.00  0.00     0.087 A 
HETATM   25  C   UNK N   1      -4.083  14.037  45.216  0.00  0.00     0.130 A 
HETATM   26  N   UNK N   1      -4.308  12.970  44.447  0.00  0.00    -0.250 N 
HETATM   27  N   UNK N   1      -4.950  15.027  44.947  0.00  0.00    -0.336 N 
HETATM   28  N   UNK N   1      -5.326  13.234  43.652  0.00  0.00    -0.288 N 
HETATM   29  C   UNK N   1      -3.583  11.827  44.518  0.00  0.00     0.121 A 
HETATM   30  C   UNK N   1      -5.718  14.493  43.961  0.00  0.00     0.199 A 
ATOM     31  HN  UNK N   1      -5.733  12.618  42.949  1.00  0.00     0.188 HD
HETATM   32  C   UNK N   1      -2.542  11.760  45.461  0.00  0.00     0.056 A 
ATOM     33  HN  UNK N   1      -5.016  15.950  45.375  1.00  0.00     0.168 HD
ENDBRANCH  22  23
ENDBRANCH  18  22
ENDBRANCH  13  15
ENDBRANCH  10  13
BRANCH   5  34
HETATM   34  N   UNK N   1      -5.231  17.340  53.150  0.00  0.00    -0.322 N 
HETATM   35  H   UNK N   1      -6.081  16.912  53.546  0.00  0.00     0.169 HD
BRANCH  34  36
HETATM   36  C   UNK N   1      -5.437  18.232  52.049  0.00  0.00     0.220 C 
HETATM   37  O   UNK N   1      -4.630  19.276  51.830  0.00  0.00    -0.320 OA
HETATM   38  C   UNK N   1      -5.123  20.061  50.807  0.00  0.00     0.209 C 
HETATM   39  C   UNK N   1      -6.333  19.232  50.273  0.00  0.00     0.048 C 
HETATM   40  N   UNK N   1      -6.415  18.166  51.240  0.00  0.00    -0.346 N 
HETATM   41  C   UNK N   1      -7.624  20.064  50.231  0.00  0.00     0.040 C 
HETATM   42  C   UNK N   1      -6.035  18.628  48.894  0.00  0.00     0.040 C 
ATOM     43  HN  UNK N   1      -7.152  17.461  51.271  1.00  0.00     0.164 HD
ENDBRANCH  34  36
ENDBRANCH   5  34
TORSDOF 6
ENDMDL
